# vtk DataFile Version 2.0
Scalar Data
ASCII
DATASET UNSTRUCTURED_GRID
FIELD FieldData 2
Time 1 1 double
  2.000000000000000E-01
  dt 1 1 double
  5.000000000000000E-02
POINTS         320 double
 -7.00000000E-03 -7.00000000E-03  0.00000000E+00
  0.00000000E+00 -7.00000000E-03  0.00000000E+00
 -7.00000000E-03  0.00000000E+00  0.00000000E+00
  0.00000000E+00  0.00000000E+00  0.00000000E+00
 -7.00000000E-03 -7.00000000E-03  3.67500000E-01
  0.00000000E+00 -7.00000000E-03  3.67500000E-01
 -7.00000000E-03  0.00000000E+00  3.67500000E-01
  0.00000000E+00  0.00000000E+00  3.67500000E-01
 -7.00000000E-03 -7.00000000E-03  3.67500000E-01
  0.00000000E+00 -7.00000000E-03  3.67500000E-01
 -7.00000000E-03  0.00000000E+00  3.67500000E-01
  0.00000000E+00  0.00000000E+00  3.67500000E-01
 -7.00000000E-03 -7.00000000E-03  7.35000000E-01
  0.00000000E+00 -7.00000000E-03  7.35000000E-01
 -7.00000000E-03  0.00000000E+00  7.35000000E-01
  0.00000000E+00  0.00000000E+00  7.35000000E-01
 -7.00000000E-03 -7.00000000E-03  7.35000000E-01
  0.00000000E+00 -7.00000000E-03  7.35000000E-01
 -7.00000000E-03  0.00000000E+00  7.35000000E-01
  0.00000000E+00  0.00000000E+00  7.35000000E-01
 -7.00000000E-03 -7.00000000E-03  1.10250000E+00
  0.00000000E+00 -7.00000000E-03  1.10250000E+00
 -7.00000000E-03  0.00000000E+00  1.10250000E+00
  0.00000000E+00  0.00000000E+00  1.10250000E+00
 -7.00000000E-03 -7.00000000E-03  1.10250000E+00
  0.00000000E+00 -7.00000000E-03  1.10250000E+00
 -7.00000000E-03  0.00000000E+00  1.10250000E+00
  0.00000000E+00  0.00000000E+00  1.10250000E+00
 -7.00000000E-03 -7.00000000E-03  1.47000000E+00
  0.00000000E+00 -7.00000000E-03  1.47000000E+00
 -7.00000000E-03  0.00000000E+00  1.47000000E+00
  0.00000000E+00  0.00000000E+00  1.47000000E+00
 -7.00000000E-03 -7.00000000E-03  1.47000000E+00
  0.00000000E+00 -7.00000000E-03  1.47000000E+00
 -7.00000000E-03  0.00000000E+00  1.47000000E+00
  0.00000000E+00  0.00000000E+00  1.47000000E+00
 -7.00000000E-03 -7.00000000E-03  1.83750000E+00
  0.00000000E+00 -7.00000000E-03  1.83750000E+00
 -7.00000000E-03  0.00000000E+00  1.83750000E+00
  0.00000000E+00  0.00000000E+00  1.83750000E+00
 -7.00000000E-03 -7.00000000E-03  1.83750000E+00
  0.00000000E+00 -7.00000000E-03  1.83750000E+00
 -7.00000000E-03  0.00000000E+00  1.83750000E+00
  0.00000000E+00  0.00000000E+00  1.83750000E+00
 -7.00000000E-03 -7.00000000E-03  2.20500000E+00
  0.00000000E+00 -7.00000000E-03  2.20500000E+00
 -7.00000000E-03  0.00000000E+00  2.20500000E+00
  0.00000000E+00  0.00000000E+00  2.20500000E+00
 -7.00000000E-03 -7.00000000E-03  2.20500000E+00
  0.00000000E+00 -7.00000000E-03  2.20500000E+00
 -7.00000000E-03  0.00000000E+00  2.20500000E+00
  0.00000000E+00  0.00000000E+00  2.20500000E+00
 -7.00000000E-03 -7.00000000E-03  2.57250000E+00
  0.00000000E+00 -7.00000000E-03  2.57250000E+00
 -7.00000000E-03  0.00000000E+00  2.57250000E+00
  0.00000000E+00  0.00000000E+00  2.57250000E+00
 -7.00000000E-03 -7.00000000E-03  2.57250000E+00
  0.00000000E+00 -7.00000000E-03  2.57250000E+00
 -7.00000000E-03  0.00000000E+00  2.57250000E+00
  0.00000000E+00  0.00000000E+00  2.57250000E+00
 -7.00000000E-03 -7.00000000E-03  2.94000000E+00
  0.00000000E+00 -7.00000000E-03  2.94000000E+00
 -7.00000000E-03  0.00000000E+00  2.94000000E+00
  0.00000000E+00  0.00000000E+00  2.94000000E+00
 -7.00000000E-03 -7.00000000E-03  2.94000000E+00
  0.00000000E+00 -7.00000000E-03  2.94000000E+00
 -7.00000000E-03  0.00000000E+00  2.94000000E+00
  0.00000000E+00  0.00000000E+00  2.94000000E+00
 -7.00000000E-03 -7.00000000E-03  3.30750000E+00
  0.00000000E+00 -7.00000000E-03  3.30750000E+00
 -7.00000000E-03  0.00000000E+00  3.30750000E+00
  0.00000000E+00  0.00000000E+00  3.30750000E+00
 -7.00000000E-03 -7.00000000E-03  3.30750000E+00
  0.00000000E+00 -7.00000000E-03  3.30750000E+00
 -7.00000000E-03  0.00000000E+00  3.30750000E+00
  0.00000000E+00  0.00000000E+00  3.30750000E+00
 -7.00000000E-03 -7.00000000E-03  3.67500000E+00
  0.00000000E+00 -7.00000000E-03  3.67500000E+00
 -7.00000000E-03  0.00000000E+00  3.67500000E+00
  0.00000000E+00  0.00000000E+00  3.67500000E+00
 -7.00000000E-03  0.00000000E+00  0.00000000E+00
  0.00000000E+00  0.00000000E+00  0.00000000E+00
 -7.00000000E-03  7.00000000E-03  0.00000000E+00
  0.00000000E+00  7.00000000E-03  0.00000000E+00
 -7.00000000E-03  0.00000000E+00  3.67500000E-01
  0.00000000E+00  0.00000000E+00  3.67500000E-01
 -7.00000000E-03  7.00000000E-03  3.67500000E-01
  0.00000000E+00  7.00000000E-03  3.67500000E-01
 -7.00000000E-03  0.00000000E+00  3.67500000E-01
  0.00000000E+00  0.00000000E+00  3.67500000E-01
 -7.00000000E-03  7.00000000E-03  3.67500000E-01
  0.00000000E+00  7.00000000E-03  3.67500000E-01
 -7.00000000E-03  0.00000000E+00  7.35000000E-01
  0.00000000E+00  0.00000000E+00  7.35000000E-01
 -7.00000000E-03  7.00000000E-03  7.35000000E-01
  0.00000000E+00  7.00000000E-03  7.35000000E-01
 -7.00000000E-03  0.00000000E+00  7.35000000E-01
  0.00000000E+00  0.00000000E+00  7.35000000E-01
 -7.00000000E-03  7.00000000E-03  7.35000000E-01
  0.00000000E+00  7.00000000E-03  7.35000000E-01
 -7.00000000E-03  0.00000000E+00  1.10250000E+00
  0.00000000E+00  0.00000000E+00  1.10250000E+00
 -7.00000000E-03  7.00000000E-03  1.10250000E+00
  0.00000000E+00  7.00000000E-03  1.10250000E+00
 -7.00000000E-03  0.00000000E+00  1.10250000E+00
  0.00000000E+00  0.00000000E+00  1.10250000E+00
 -7.00000000E-03  7.00000000E-03  1.10250000E+00
  0.00000000E+00  7.00000000E-03  1.10250000E+00
 -7.00000000E-03  0.00000000E+00  1.47000000E+00
  0.00000000E+00  0.00000000E+00  1.47000000E+00
 -7.00000000E-03  7.00000000E-03  1.47000000E+00
  0.00000000E+00  7.00000000E-03  1.47000000E+00
 -7.00000000E-03  0.00000000E+00  1.47000000E+00
  0.00000000E+00  0.00000000E+00  1.47000000E+00
 -7.00000000E-03  7.00000000E-03  1.47000000E+00
  0.00000000E+00  7.00000000E-03  1.47000000E+00
 -7.00000000E-03  0.00000000E+00  1.83750000E+00
  0.00000000E+00  0.00000000E+00  1.83750000E+00
 -7.00000000E-03  7.00000000E-03  1.83750000E+00
  0.00000000E+00  7.00000000E-03  1.83750000E+00
 -7.00000000E-03  0.00000000E+00  1.83750000E+00
  0.00000000E+00  0.00000000E+00  1.83750000E+00
 -7.00000000E-03  7.00000000E-03  1.83750000E+00
  0.00000000E+00  7.00000000E-03  1.83750000E+00
 -7.00000000E-03  0.00000000E+00  2.20500000E+00
  0.00000000E+00  0.00000000E+00  2.20500000E+00
 -7.00000000E-03  7.00000000E-03  2.20500000E+00
  0.00000000E+00  7.00000000E-03  2.20500000E+00
 -7.00000000E-03  0.00000000E+00  2.20500000E+00
  0.00000000E+00  0.00000000E+00  2.20500000E+00
 -7.00000000E-03  7.00000000E-03  2.20500000E+00
  0.00000000E+00  7.00000000E-03  2.20500000E+00
 -7.00000000E-03  0.00000000E+00  2.57250000E+00
  0.00000000E+00  0.00000000E+00  2.57250000E+00
 -7.00000000E-03  7.00000000E-03  2.57250000E+00
  0.00000000E+00  7.00000000E-03  2.57250000E+00
 -7.00000000E-03  0.00000000E+00  2.57250000E+00
  0.00000000E+00  0.00000000E+00  2.57250000E+00
 -7.00000000E-03  7.00000000E-03  2.57250000E+00
  0.00000000E+00  7.00000000E-03  2.57250000E+00
 -7.00000000E-03  0.00000000E+00  2.94000000E+00
  0.00000000E+00  0.00000000E+00  2.94000000E+00
 -7.00000000E-03  7.00000000E-03  2.94000000E+00
  0.00000000E+00  7.00000000E-03  2.94000000E+00
 -7.00000000E-03  0.00000000E+00  2.94000000E+00
  0.00000000E+00  0.00000000E+00  2.94000000E+00
 -7.00000000E-03  7.00000000E-03  2.94000000E+00
  0.00000000E+00  7.00000000E-03  2.94000000E+00
 -7.00000000E-03  0.00000000E+00  3.30750000E+00
  0.00000000E+00  0.00000000E+00  3.30750000E+00
 -7.00000000E-03  7.00000000E-03  3.30750000E+00
  0.00000000E+00  7.00000000E-03  3.30750000E+00
 -7.00000000E-03  0.00000000E+00  3.30750000E+00
  0.00000000E+00  0.00000000E+00  3.30750000E+00
 -7.00000000E-03  7.00000000E-03  3.30750000E+00
  0.00000000E+00  7.00000000E-03  3.30750000E+00
 -7.00000000E-03  0.00000000E+00  3.67500000E+00
  0.00000000E+00  0.00000000E+00  3.67500000E+00
 -7.00000000E-03  7.00000000E-03  3.67500000E+00
  0.00000000E+00  7.00000000E-03  3.67500000E+00
  0.00000000E+00 -7.00000000E-03  0.00000000E+00
  7.00000000E-03 -7.00000000E-03  0.00000000E+00
  0.00000000E+00  0.00000000E+00  0.00000000E+00
  7.00000000E-03  0.00000000E+00  0.00000000E+00
  0.00000000E+00 -7.00000000E-03  3.67500000E-01
  7.00000000E-03 -7.00000000E-03  3.67500000E-01
  0.00000000E+00  0.00000000E+00  3.67500000E-01
  7.00000000E-03  0.00000000E+00  3.67500000E-01
  0.00000000E+00 -7.00000000E-03  3.67500000E-01
  7.00000000E-03 -7.00000000E-03  3.67500000E-01
  0.00000000E+00  0.00000000E+00  3.67500000E-01
  7.00000000E-03  0.00000000E+00  3.67500000E-01
  0.00000000E+00 -7.00000000E-03  7.35000000E-01
  7.00000000E-03 -7.00000000E-03  7.35000000E-01
  0.00000000E+00  0.00000000E+00  7.35000000E-01
  7.00000000E-03  0.00000000E+00  7.35000000E-01
  0.00000000E+00 -7.00000000E-03  7.35000000E-01
  7.00000000E-03 -7.00000000E-03  7.35000000E-01
  0.00000000E+00  0.00000000E+00  7.35000000E-01
  7.00000000E-03  0.00000000E+00  7.35000000E-01
  0.00000000E+00 -7.00000000E-03  1.10250000E+00
  7.00000000E-03 -7.00000000E-03  1.10250000E+00
  0.00000000E+00  0.00000000E+00  1.10250000E+00
  7.00000000E-03  0.00000000E+00  1.10250000E+00
  0.00000000E+00 -7.00000000E-03  1.10250000E+00
  7.00000000E-03 -7.00000000E-03  1.10250000E+00
  0.00000000E+00  0.00000000E+00  1.10250000E+00
  7.00000000E-03  0.00000000E+00  1.10250000E+00
  0.00000000E+00 -7.00000000E-03  1.47000000E+00
  7.00000000E-03 -7.00000000E-03  1.47000000E+00
  0.00000000E+00  0.00000000E+00  1.47000000E+00
  7.00000000E-03  0.00000000E+00  1.47000000E+00
  0.00000000E+00 -7.00000000E-03  1.47000000E+00
  7.00000000E-03 -7.00000000E-03  1.47000000E+00
  0.00000000E+00  0.00000000E+00  1.47000000E+00
  7.00000000E-03  0.00000000E+00  1.47000000E+00
  0.00000000E+00 -7.00000000E-03  1.83750000E+00
  7.00000000E-03 -7.00000000E-03  1.83750000E+00
  0.00000000E+00  0.00000000E+00  1.83750000E+00
  7.00000000E-03  0.00000000E+00  1.83750000E+00
  0.00000000E+00 -7.00000000E-03  1.83750000E+00
  7.00000000E-03 -7.00000000E-03  1.83750000E+00
  0.00000000E+00  0.00000000E+00  1.83750000E+00
  7.00000000E-03  0.00000000E+00  1.83750000E+00
  0.00000000E+00 -7.00000000E-03  2.20500000E+00
  7.00000000E-03 -7.00000000E-03  2.20500000E+00
  0.00000000E+00  0.00000000E+00  2.20500000E+00
  7.00000000E-03  0.00000000E+00  2.20500000E+00
  0.00000000E+00 -7.00000000E-03  2.20500000E+00
  7.00000000E-03 -7.00000000E-03  2.20500000E+00
  0.00000000E+00  0.00000000E+00  2.20500000E+00
  7.00000000E-03  0.00000000E+00  2.20500000E+00
  0.00000000E+00 -7.00000000E-03  2.57250000E+00
  7.00000000E-03 -7.00000000E-03  2.57250000E+00
  0.00000000E+00  0.00000000E+00  2.57250000E+00
  7.00000000E-03  0.00000000E+00  2.57250000E+00
  0.00000000E+00 -7.00000000E-03  2.57250000E+00
  7.00000000E-03 -7.00000000E-03  2.57250000E+00
  0.00000000E+00  0.00000000E+00  2.57250000E+00
  7.00000000E-03  0.00000000E+00  2.57250000E+00
  0.00000000E+00 -7.00000000E-03  2.94000000E+00
  7.00000000E-03 -7.00000000E-03  2.94000000E+00
  0.00000000E+00  0.00000000E+00  2.94000000E+00
  7.00000000E-03  0.00000000E+00  2.94000000E+00
  0.00000000E+00 -7.00000000E-03  2.94000000E+00
  7.00000000E-03 -7.00000000E-03  2.94000000E+00
  0.00000000E+00  0.00000000E+00  2.94000000E+00
  7.00000000E-03  0.00000000E+00  2.94000000E+00
  0.00000000E+00 -7.00000000E-03  3.30750000E+00
  7.00000000E-03 -7.00000000E-03  3.30750000E+00
  0.00000000E+00  0.00000000E+00  3.30750000E+00
  7.00000000E-03  0.00000000E+00  3.30750000E+00
  0.00000000E+00 -7.00000000E-03  3.30750000E+00
  7.00000000E-03 -7.00000000E-03  3.30750000E+00
  0.00000000E+00  0.00000000E+00  3.30750000E+00
  7.00000000E-03  0.00000000E+00  3.30750000E+00
  0.00000000E+00 -7.00000000E-03  3.67500000E+00
  7.00000000E-03 -7.00000000E-03  3.67500000E+00
  0.00000000E+00  0.00000000E+00  3.67500000E+00
  7.00000000E-03  0.00000000E+00  3.67500000E+00
  0.00000000E+00  0.00000000E+00  0.00000000E+00
  7.00000000E-03  0.00000000E+00  0.00000000E+00
  0.00000000E+00  7.00000000E-03  0.00000000E+00
  7.00000000E-03  7.00000000E-03  0.00000000E+00
  0.00000000E+00  0.00000000E+00  3.67500000E-01
  7.00000000E-03  0.00000000E+00  3.67500000E-01
  0.00000000E+00  7.00000000E-03  3.67500000E-01
  7.00000000E-03  7.00000000E-03  3.67500000E-01
  0.00000000E+00  0.00000000E+00  3.67500000E-01
  7.00000000E-03  0.00000000E+00  3.67500000E-01
  0.00000000E+00  7.00000000E-03  3.67500000E-01
  7.00000000E-03  7.00000000E-03  3.67500000E-01
  0.00000000E+00  0.00000000E+00  7.35000000E-01
  7.00000000E-03  0.00000000E+00  7.35000000E-01
  0.00000000E+00  7.00000000E-03  7.35000000E-01
  7.00000000E-03  7.00000000E-03  7.35000000E-01
  0.00000000E+00  0.00000000E+00  7.35000000E-01
  7.00000000E-03  0.00000000E+00  7.35000000E-01
  0.00000000E+00  7.00000000E-03  7.35000000E-01
  7.00000000E-03  7.00000000E-03  7.35000000E-01
  0.00000000E+00  0.00000000E+00  1.10250000E+00
  7.00000000E-03  0.00000000E+00  1.10250000E+00
  0.00000000E+00  7.00000000E-03  1.10250000E+00
  7.00000000E-03  7.00000000E-03  1.10250000E+00
  0.00000000E+00  0.00000000E+00  1.10250000E+00
  7.00000000E-03  0.00000000E+00  1.10250000E+00
  0.00000000E+00  7.00000000E-03  1.10250000E+00
  7.00000000E-03  7.00000000E-03  1.10250000E+00
  0.00000000E+00  0.00000000E+00  1.47000000E+00
  7.00000000E-03  0.00000000E+00  1.47000000E+00
  0.00000000E+00  7.00000000E-03  1.47000000E+00
  7.00000000E-03  7.00000000E-03  1.47000000E+00
  0.00000000E+00  0.00000000E+00  1.47000000E+00
  7.00000000E-03  0.00000000E+00  1.47000000E+00
  0.00000000E+00  7.00000000E-03  1.47000000E+00
  7.00000000E-03  7.00000000E-03  1.47000000E+00
  0.00000000E+00  0.00000000E+00  1.83750000E+00
  7.00000000E-03  0.00000000E+00  1.83750000E+00
  0.00000000E+00  7.00000000E-03  1.83750000E+00
  7.00000000E-03  7.00000000E-03  1.83750000E+00
  0.00000000E+00  0.00000000E+00  1.83750000E+00
  7.00000000E-03  0.00000000E+00  1.83750000E+00
  0.00000000E+00  7.00000000E-03  1.83750000E+00
  7.00000000E-03  7.00000000E-03  1.83750000E+00
  0.00000000E+00  0.00000000E+00  2.20500000E+00
  7.00000000E-03  0.00000000E+00  2.20500000E+00
  0.00000000E+00  7.00000000E-03  2.20500000E+00
  7.00000000E-03  7.00000000E-03  2.20500000E+00
  0.00000000E+00  0.00000000E+00  2.20500000E+00
  7.00000000E-03  0.00000000E+00  2.20500000E+00
  0.00000000E+00  7.00000000E-03  2.20500000E+00
  7.00000000E-03  7.00000000E-03  2.20500000E+00
  0.00000000E+00  0.00000000E+00  2.57250000E+00
  7.00000000E-03  0.00000000E+00  2.57250000E+00
  0.00000000E+00  7.00000000E-03  2.57250000E+00
  7.00000000E-03  7.00000000E-03  2.57250000E+00
  0.00000000E+00  0.00000000E+00  2.57250000E+00
  7.00000000E-03  0.00000000E+00  2.57250000E+00
  0.00000000E+00  7.00000000E-03  2.57250000E+00
  7.00000000E-03  7.00000000E-03  2.57250000E+00
  0.00000000E+00  0.00000000E+00  2.94000000E+00
  7.00000000E-03  0.00000000E+00  2.94000000E+00
  0.00000000E+00  7.00000000E-03  2.94000000E+00
  7.00000000E-03  7.00000000E-03  2.94000000E+00
  0.00000000E+00  0.00000000E+00  2.94000000E+00
  7.00000000E-03  0.00000000E+00  2.94000000E+00
  0.00000000E+00  7.00000000E-03  2.94000000E+00
  7.00000000E-03  7.00000000E-03  2.94000000E+00
  0.00000000E+00  0.00000000E+00  3.30750000E+00
  7.00000000E-03  0.00000000E+00  3.30750000E+00
  0.00000000E+00  7.00000000E-03  3.30750000E+00
  7.00000000E-03  7.00000000E-03  3.30750000E+00
  0.00000000E+00  0.00000000E+00  3.30750000E+00
  7.00000000E-03  0.00000000E+00  3.30750000E+00
  0.00000000E+00  7.00000000E-03  3.30750000E+00
  7.00000000E-03  7.00000000E-03  3.30750000E+00
  0.00000000E+00  0.00000000E+00  3.67500000E+00
  7.00000000E-03  0.00000000E+00  3.67500000E+00
  0.00000000E+00  7.00000000E-03  3.67500000E+00
  7.00000000E-03  7.00000000E-03  3.67500000E+00
CELLS        40       360
         8         0         1         2         3         4         5         6         7
         8         8         9        10        11        12        13        14        15
         8        16        17        18        19        20        21        22        23
         8        24        25        26        27        28        29        30        31
         8        32        33        34        35        36        37        38        39
         8        40        41        42        43        44        45        46        47
         8        48        49        50        51        52        53        54        55
         8        56        57        58        59        60        61        62        63
         8        64        65        66        67        68        69        70        71
         8        72        73        74        75        76        77        78        79
         8        80        81        82        83        84        85        86        87
         8        88        89        90        91        92        93        94        95
         8        96        97        98        99       100       101       102       103
         8       104       105       106       107       108       109       110       111
         8       112       113       114       115       116       117       118       119
         8       120       121       122       123       124       125       126       127
         8       128       129       130       131       132       133       134       135
         8       136       137       138       139       140       141       142       143
         8       144       145       146       147       148       149       150       151
         8       152       153       154       155       156       157       158       159
         8       160       161       162       163       164       165       166       167
         8       168       169       170       171       172       173       174       175
         8       176       177       178       179       180       181       182       183
         8       184       185       186       187       188       189       190       191
         8       192       193       194       195       196       197       198       199
         8       200       201       202       203       204       205       206       207
         8       208       209       210       211       212       213       214       215
         8       216       217       218       219       220       221       222       223
         8       224       225       226       227       228       229       230       231
         8       232       233       234       235       236       237       238       239
         8       240       241       242       243       244       245       246       247
         8       248       249       250       251       252       253       254       255
         8       256       257       258       259       260       261       262       263
         8       264       265       266       267       268       269       270       271
         8       272       273       274       275       276       277       278       279
         8       280       281       282       283       284       285       286       287
         8       288       289       290       291       292       293       294       295
         8       296       297       298       299       300       301       302       303
         8       304       305       306       307       308       309       310       311
         8       312       313       314       315       316       317       318       319
CELL_TYPES      40
11
11
11
11
11
11
11
11
11
11
11
11
11
11
11
11
11
11
11
11
11
11
11
11
11
11
11
11
11
11
11
11
11
11
11
11
11
11
11
11
CELL_DATA      40
SCALARS Liquid_Volume_Fraction float
LOOKUP_TABLE default
  1.0000E+00
  1.0000E+00
  1.0000E+00
  1.0000E+00
  1.0000E+00
  1.0000E+00
  1.0000E+00
  1.0000E+00
  1.0000E+00
  1.0000E+00
  1.0000E+00
  1.0000E+00
  1.0000E+00
  1.0000E+00
  1.0000E+00
  1.0000E+00
  1.0000E+00
  1.0000E+00
  1.0000E+00
  1.0000E+00
  1.0000E+00
  1.0000E+00
  1.0000E+00
  1.0000E+00
  1.0000E+00
  1.0000E+00
  1.0000E+00
  1.0000E+00
  1.0000E+00
  1.0000E+00
  1.0000E+00
  1.0000E+00
  1.0000E+00
  1.0000E+00
  1.0000E+00
  1.0000E+00
  1.0000E+00
  1.0000E+00
  1.0000E+00
  1.0000E+00
SCALARS Entrained_Volume_Fraction float
LOOKUP_TABLE default
  0.0000E+00
  0.0000E+00
  0.0000E+00
  0.0000E+00
  0.0000E+00
  0.0000E+00
  0.0000E+00
  0.0000E+00
  0.0000E+00
  0.0000E+00
  0.0000E+00
  0.0000E+00
  0.0000E+00
  0.0000E+00
  0.0000E+00
  0.0000E+00
  0.0000E+00
  0.0000E+00
  0.0000E+00
  0.0000E+00
  0.0000E+00
  0.0000E+00
  0.0000E+00
  0.0000E+00
  0.0000E+00
  0.0000E+00
  0.0000E+00
  0.0000E+00
  0.0000E+00
  0.0000E+00
  0.0000E+00
  0.0000E+00
  0.0000E+00
  0.0000E+00
  0.0000E+00
  0.0000E+00
  0.0000E+00
  0.0000E+00
  0.0000E+00
  0.0000E+00
SCALARS Vapor_Volume_Fraction float
LOOKUP_TABLE default
  0.0000E+00
  0.0000E+00
  0.0000E+00
  0.0000E+00
  0.0000E+00
  0.0000E+00
  0.0000E+00
  0.0000E+00
  0.0000E+00
  0.0000E+00
  0.0000E+00
  0.0000E+00
  0.0000E+00
  0.0000E+00
  0.0000E+00
  0.0000E+00
  0.0000E+00
  0.0000E+00
  0.0000E+00
  0.0000E+00
  0.0000E+00
  0.0000E+00
  0.0000E+00
  0.0000E+00
  0.0000E+00
  0.0000E+00
  0.0000E+00
  0.0000E+00
  0.0000E+00
  0.0000E+00
  0.0000E+00
  0.0000E+00
  0.0000E+00
  0.0000E+00
  0.0000E+00
  0.0000E+00
  0.0000E+00
  0.0000E+00
  0.0000E+00
  0.0000E+00
SCALARS Pressure float
LOOKUP_TABLE default
  1.5527E+02
  1.5524E+02
  1.5521E+02
  1.5519E+02
  1.5516E+02
  1.5513E+02
  1.5511E+02
  1.5508E+02
  1.5505E+02
  1.5503E+02
  1.5527E+02
  1.5524E+02
  1.5521E+02
  1.5519E+02
  1.5516E+02
  1.5513E+02
  1.5511E+02
  1.5508E+02
  1.5505E+02
  1.5503E+02
  1.5527E+02
  1.5524E+02
  1.5521E+02
  1.5519E+02
  1.5516E+02
  1.5513E+02
  1.5511E+02
  1.5508E+02
  1.5505E+02
  1.5503E+02
  1.5527E+02
  1.5524E+02
  1.5521E+02
  1.5519E+02
  1.5516E+02
  1.5513E+02
  1.5511E+02
  1.5508E+02
  1.5505E+02
  1.5503E+02
SCALARS Liquid_Enthalpy float
LOOKUP_TABLE default
  1.3164E+03
  1.3164E+03
  1.3163E+03
  1.3152E+03
  1.3077E+03
  1.2891E+03
  1.2891E+03
  1.2891E+03
  1.2891E+03
  1.2891E+03
  1.3164E+03
  1.3164E+03
  1.3163E+03
  1.3152E+03
  1.3077E+03
  1.2891E+03
  1.2891E+03
  1.2891E+03
  1.2891E+03
  1.2891E+03
  1.3164E+03
  1.3164E+03
  1.3163E+03
  1.3152E+03
  1.3077E+03
  1.2891E+03
  1.2891E+03
  1.2891E+03
  1.2891E+03
  1.2891E+03
  1.3164E+03
  1.3164E+03
  1.3163E+03
  1.3152E+03
  1.3077E+03
  1.2891E+03
  1.2891E+03
  1.2891E+03
  1.2891E+03
  1.2891E+03
SCALARS Vapor_Enthalpy float
LOOKUP_TABLE default
  2.6005E+03
  2.6005E+03
  2.6005E+03
  2.6005E+03
  2.6005E+03
  2.6005E+03
  2.6005E+03
  2.6005E+03
  2.6005E+03
  2.6005E+03
  2.6005E+03
  2.6005E+03
  2.6005E+03
  2.6005E+03
  2.6005E+03
  2.6005E+03
  2.6005E+03
  2.6005E+03
  2.6005E+03
  2.6005E+03
  2.6005E+03
  2.6005E+03
  2.6005E+03
  2.6005E+03
  2.6005E+03
  2.6005E+03
  2.6005E+03
  2.6005E+03
  2.6005E+03
  2.6005E+03
  2.6005E+03
  2.6005E+03
  2.6005E+03
  2.6005E+03
  2.6005E+03
  2.6005E+03
  2.6005E+03
  2.6005E+03
  2.6005E+03
  2.6005E+03
SCALARS Liquid_Density float
LOOKUP_TABLE default
  7.3492E+02
  7.3492E+02
  7.3494E+02
  7.3534E+02
  7.3815E+02
  7.4503E+02
  7.4503E+02
  7.4502E+02
  7.4502E+02
  7.4501E+02
  7.3492E+02
  7.3492E+02
  7.3494E+02
  7.3534E+02
  7.3815E+02
  7.4503E+02
  7.4503E+02
  7.4502E+02
  7.4502E+02
  7.4501E+02
  7.3492E+02
  7.3492E+02
  7.3494E+02
  7.3534E+02
  7.3815E+02
  7.4503E+02
  7.4503E+02
  7.4502E+02
  7.4502E+02
  7.4501E+02
  7.3492E+02
  7.3492E+02
  7.3494E+02
  7.3534E+02
  7.3815E+02
  7.4503E+02
  7.4503E+02
  7.4502E+02
  7.4502E+02
  7.4501E+02
SCALARS Vapor_Density float
LOOKUP_TABLE default
  1.0171E+02
  1.0169E+02
  1.0168E+02
  1.0166E+02
  1.0164E+02
  1.0162E+02
  1.0161E+02
  1.0159E+02
  1.0157E+02
  1.0156E+02
  1.0171E+02
  1.0169E+02
  1.0168E+02
  1.0166E+02
  1.0164E+02
  1.0162E+02
  1.0161E+02
  1.0159E+02
  1.0157E+02
  1.0156E+02
  1.0171E+02
  1.0169E+02
  1.0168E+02
  1.0166E+02
  1.0164E+02
  1.0162E+02
  1.0161E+02
  1.0159E+02
  1.0157E+02
  1.0156E+02
  1.0171E+02
  1.0169E+02
  1.0168E+02
  1.0166E+02
  1.0164E+02
  1.0162E+02
  1.0161E+02
  1.0159E+02
  1.0157E+02
  1.0156E+02
SCALARS Vapor_Generation float
LOOKUP_TABLE default
  0.0000E+00
  0.0000E+00
  0.0000E+00
  0.0000E+00
  0.0000E+00
  0.0000E+00
  0.0000E+00
  0.0000E+00
  0.0000E+00
  0.0000E+00
  0.0000E+00
  0.0000E+00
  0.0000E+00
  0.0000E+00
  0.0000E+00
  0.0000E+00
  0.0000E+00
  0.0000E+00
  0.0000E+00
  0.0000E+00
  0.0000E+00
  0.0000E+00
  0.0000E+00
  0.0000E+00
  0.0000E+00
  0.0000E+00
  0.0000E+00
  0.0000E+00
  0.0000E+00
  0.0000E+00
  0.0000E+00
  0.0000E+00
  0.0000E+00
  0.0000E+00
  0.0000E+00
  0.0000E+00
  0.0000E+00
  0.0000E+00
  0.0000E+00
  0.0000E+00
SCALARS Scalar_Cell_Flow_Area float
LOOKUP_TABLE default
  4.9362E-05
  4.9362E-05
  4.9362E-05
  4.9362E-05
  4.9362E-05
  4.9362E-05
  4.9362E-05
  4.9362E-05
  4.9362E-05
  4.9362E-05
  4.9362E-05
  4.9362E-05
  4.9362E-05
  4.9362E-05
  4.9362E-05
  4.9362E-05
  4.9362E-05
  4.9362E-05
  4.9362E-05
  4.9362E-05
  4.9362E-05
  4.9362E-05
  4.9362E-05
  4.9362E-05
  4.9362E-05
  4.9362E-05
  4.9362E-05
  4.9362E-05
  4.9362E-05
  4.9362E-05
  4.9362E-05
  4.9362E-05
  4.9362E-05
  4.9362E-05
  4.9362E-05
  4.9362E-05
  4.9362E-05
  4.9362E-05
  4.9362E-05
  4.9362E-05
SCALARS Channel_Wetted_Perimeter float
LOOKUP_TABLE default
  1.4922E-02
  1.4922E-02
  1.4922E-02
  1.4922E-02
  1.4922E-02
  1.4922E-02
  1.4922E-02
  1.4922E-02
  1.4922E-02
  1.4922E-02
  1.4922E-02
  1.4922E-02
  1.4922E-02
  1.4922E-02
  1.4922E-02
  1.4922E-02
  1.4922E-02
  1.4922E-02
  1.4922E-02
  1.4922E-02
  1.4922E-02
  1.4922E-02
  1.4922E-02
  1.4922E-02
  1.4922E-02
  1.4922E-02
  1.4922E-02
  1.4922E-02
  1.4922E-02
  1.4922E-02
  1.4922E-02
  1.4922E-02
  1.4922E-02
  1.4922E-02
  1.4922E-02
  1.4922E-02
  1.4922E-02
  1.4922E-02
  1.4922E-02
  1.4922E-02
SCALARS Equilibrium_Quality float
LOOKUP_TABLE default
         NaN
         NaN
         NaN
         NaN
         NaN
         NaN
         NaN
         NaN
         NaN
         NaN
         NaN
         NaN
         NaN
         NaN
         NaN
         NaN
         NaN
         NaN
         NaN
         NaN
         NaN
         NaN
         NaN
         NaN
         NaN
         NaN
         NaN
         NaN
         NaN
         NaN
         NaN
         NaN
         NaN
         NaN
         NaN
         NaN
         NaN
         NaN
         NaN
         NaN
SCALARS Mixture_Temperature_C float
LOOKUP_TABLE default
         NaN
         NaN
         NaN
         NaN
         NaN
         NaN
         NaN
         NaN
         NaN
         NaN
         NaN
         NaN
         NaN
         NaN
         NaN
         NaN
         NaN
         NaN
         NaN
         NaN
         NaN
         NaN
         NaN
         NaN
         NaN
         NaN
         NaN
         NaN
         NaN
         NaN
         NaN
         NaN
         NaN
         NaN
         NaN
         NaN
         NaN
         NaN
         NaN
         NaN
SCALARS Mixture_Mass_Flux_kg/s/m**2 float
LOOKUP_TABLE default
         NaN
         NaN
         NaN
         NaN
         NaN
         NaN
         NaN
         NaN
         NaN
         NaN
         NaN
         NaN
         NaN
         NaN
         NaN
         NaN
         NaN
         NaN
         NaN
         NaN
         NaN
         NaN
         NaN
         NaN
         NaN
         NaN
         NaN
         NaN
         NaN
         NaN
         NaN
         NaN
         NaN
         NaN
         NaN
         NaN
         NaN
         NaN
         NaN
         NaN
VECTORS Liquid_velocity float
     0.0000E+00     0.0000E+00     0.6891E+01
     0.0000E+00     0.0000E+00     0.6891E+01
     0.0000E+00     0.0000E+00     0.6890E+01
     0.0000E+00     0.0000E+00     0.6884E+01
     0.0000E+00     0.0000E+00     0.6868E+01
     0.0000E+00     0.0000E+00     0.6874E+01
     0.0000E+00     0.0000E+00     0.6890E+01
     0.0000E+00     0.0000E+00     0.6890E+01
     0.0000E+00     0.0000E+00     0.6890E+01
     0.0000E+00     0.0000E+00     0.6890E+01
     0.0000E+00     0.0000E+00     0.6891E+01
     0.0000E+00     0.0000E+00     0.6891E+01
     0.0000E+00     0.0000E+00     0.6890E+01
     0.0000E+00     0.0000E+00     0.6884E+01
     0.0000E+00     0.0000E+00     0.6868E+01
     0.0000E+00     0.0000E+00     0.6874E+01
     0.0000E+00     0.0000E+00     0.6890E+01
     0.0000E+00     0.0000E+00     0.6890E+01
     0.0000E+00     0.0000E+00     0.6890E+01
     0.0000E+00     0.0000E+00     0.6890E+01
     0.0000E+00     0.0000E+00     0.6891E+01
     0.0000E+00     0.0000E+00     0.6891E+01
     0.0000E+00     0.0000E+00     0.6890E+01
     0.0000E+00     0.0000E+00     0.6884E+01
     0.0000E+00     0.0000E+00     0.6868E+01
     0.0000E+00     0.0000E+00     0.6874E+01
     0.0000E+00     0.0000E+00     0.6890E+01
     0.0000E+00     0.0000E+00     0.6890E+01
     0.0000E+00     0.0000E+00     0.6890E+01
     0.0000E+00     0.0000E+00     0.6890E+01
     0.0000E+00     0.0000E+00     0.6891E+01
     0.0000E+00     0.0000E+00     0.6891E+01
     0.0000E+00     0.0000E+00     0.6890E+01
     0.0000E+00     0.0000E+00     0.6884E+01
     0.0000E+00     0.0000E+00     0.6868E+01
     0.0000E+00     0.0000E+00     0.6874E+01
     0.0000E+00     0.0000E+00     0.6890E+01
     0.0000E+00     0.0000E+00     0.6890E+01
     0.0000E+00     0.0000E+00     0.6890E+01
     0.0000E+00     0.0000E+00     0.6890E+01
VECTORS Vapor_velocity float
     0.0000E+00     0.0000E+00            NaN
     0.0000E+00     0.0000E+00            NaN
     0.0000E+00     0.0000E+00            NaN
     0.0000E+00     0.0000E+00            NaN
     0.0000E+00     0.0000E+00            NaN
     0.0000E+00     0.0000E+00            NaN
     0.0000E+00     0.0000E+00            NaN