# vtk DataFile Version 2.0
Scalar Data
ASCII
DATASET UNSTRUCTURED_GRID
FIELD FieldData 2
Time 1 1 double
  6.018164387818496E-01
  dt 1 1 double
  5.000000000000000E-03
POINTS          80 double
 -7.00000000E-03 -7.00000000E-03  0.00000000E+00
  0.00000000E+00 -7.00000000E-03  0.00000000E+00
 -7.00000000E-03  0.00000000E+00  0.00000000E+00
  0.00000000E+00  0.00000000E+00  0.00000000E+00
 -7.00000000E-03 -7.00000000E-03  3.67500000E-01
  0.00000000E+00 -7.00000000E-03  3.67500000E-01
 -7.00000000E-03  0.00000000E+00  3.67500000E-01
  0.00000000E+00  0.00000000E+00  3.67500000E-01
 -7.00000000E-03 -7.00000000E-03  3.67500000E-01
  0.00000000E+00 -7.00000000E-03  3.67500000E-01
 -7.00000000E-03  0.00000000E+00  3.67500000E-01
  0.00000000E+00  0.00000000E+00  3.67500000E-01
 -7.00000000E-03 -7.00000000E-03  7.35000000E-01
  0.00000000E+00 -7.00000000E-03  7.35000000E-01
 -7.00000000E-03  0.00000000E+00  7.35000000E-01
  0.00000000E+00  0.00000000E+00  7.35000000E-01
 -7.00000000E-03 -7.00000000E-03  7.35000000E-01
  0.00000000E+00 -7.00000000E-03  7.35000000E-01
 -7.00000000E-03  0.00000000E+00  7.35000000E-01
  0.00000000E+00  0.00000000E+00  7.35000000E-01
 -7.00000000E-03 -7.00000000E-03  1.10250000E+00
  0.00000000E+00 -7.00000000E-03  1.10250000E+00
 -7.00000000E-03  0.00000000E+00  1.10250000E+00
  0.00000000E+00  0.00000000E+00  1.10250000E+00
 -7.00000000E-03 -7.00000000E-03  1.10250000E+00
  0.00000000E+00 -7.00000000E-03  1.10250000E+00
 -7.00000000E-03  0.00000000E+00  1.10250000E+00
  0.00000000E+00  0.00000000E+00  1.10250000E+00
 -7.00000000E-03 -7.00000000E-03  1.47000000E+00
  0.00000000E+00 -7.00000000E-03  1.47000000E+00
 -7.00000000E-03  0.00000000E+00  1.47000000E+00
  0.00000000E+00  0.00000000E+00  1.47000000E+00
 -7.00000000E-03 -7.00000000E-03  1.47000000E+00
  0.00000000E+00 -7.00000000E-03  1.47000000E+00
 -7.00000000E-03  0.00000000E+00  1.47000000E+00
  0.00000000E+00  0.00000000E+00  1.47000000E+00
 -7.00000000E-03 -7.00000000E-03  1.83750000E+00
  0.00000000E+00 -7.00000000E-03  1.83750000E+00
 -7.00000000E-03  0.00000000E+00  1.83750000E+00
  0.00000000E+00  0.00000000E+00  1.83750000E+00
 -7.00000000E-03 -7.00000000E-03  1.83750000E+00
  0.00000000E+00 -7.00000000E-03  1.83750000E+00
 -7.00000000E-03  0.00000000E+00  1.83750000E+00
  0.00000000E+00  0.00000000E+00  1.83750000E+00
 -7.00000000E-03 -7.00000000E-03  2.20500000E+00
  0.00000000E+00 -7.00000000E-03  2.20500000E+00
 -7.00000000E-03  0.00000000E+00  2.20500000E+00
  0.00000000E+00  0.00000000E+00  2.20500000E+00
 -7.00000000E-03 -7.00000000E-03  2.20500000E+00
  0.00000000E+00 -7.00000000E-03  2.20500000E+00
 -7.00000000E-03  0.00000000E+00  2.20500000E+00
  0.00000000E+00  0.00000000E+00  2.20500000E+00
 -7.00000000E-03 -7.00000000E-03  2.57250000E+00
  0.00000000E+00 -7.00000000E-03  2.57250000E+00
 -7.00000000E-03  0.00000000E+00  2.57250000E+00
  0.00000000E+00  0.00000000E+00  2.57250000E+00
 -7.00000000E-03 -7.00000000E-03  2.57250000E+00
  0.00000000E+00 -7.00000000E-03  2.57250000E+00
 -7.00000000E-03  0.00000000E+00  2.57250000E+00
  0.00000000E+00  0.00000000E+00  2.57250000E+00
 -7.00000000E-03 -7.00000000E-03  2.94000000E+00
  0.00000000E+00 -7.00000000E-03  2.94000000E+00
 -7.00000000E-03  0.00000000E+00  2.94000000E+00
  0.00000000E+00  0.00000000E+00  2.94000000E+00
 -7.00000000E-03 -7.00000000E-03  2.94000000E+00
  0.00000000E+00 -7.00000000E-03  2.94000000E+00
 -7.00000000E-03  0.00000000E+00  2.94000000E+00
  0.00000000E+00  0.00000000E+00  2.94000000E+00
 -7.00000000E-03 -7.00000000E-03  3.30750000E+00
  0.00000000E+00 -7.00000000E-03  3.30750000E+00
 -7.00000000E-03  0.00000000E+00  3.30750000E+00
  0.00000000E+00  0.00000000E+00  3.30750000E+00
 -7.00000000E-03 -7.00000000E-03  3.30750000E+00
  0.00000000E+00 -7.00000000E-03  3.30750000E+00
 -7.00000000E-03  0.00000000E+00  3.30750000E+00
  0.00000000E+00  0.00000000E+00  3.30750000E+00
 -7.00000000E-03 -7.00000000E-03  3.67500000E+00
  0.00000000E+00 -7.00000000E-03  3.67500000E+00
 -7.00000000E-03  0.00000000E+00  3.67500000E+00
  0.00000000E+00  0.00000000E+00  3.67500000E+00
CELLS        10        90
         8         0         1         2         3         4         5         6         7
         8         8         9        10        11        12        13        14        15
         8        16        17        18        19        20        21        22        23
         8        24        25        26        27        28        29        30        31
         8        32        33        34        35        36        37        38        39
         8        40        41        42        43        44        45        46        47
         8        48        49        50        51        52        53        54        55
         8        56        57        58        59        60        61        62        63
         8        64        65        66        67        68        69        70        71
         8        72        73        74        75        76        77        78        79
CELL_TYPES      10
11
11
11
11
11
11
11
11
11
11
CELL_DATA      10
SCALARS Liquid_Volume_Fraction float
LOOKUP_TABLE default
  1.000000000000000E+00
  1.000000000000000E+00
  1.000000000000000E+00
  1.000000000000000E+00
  1.000000000000000E+00
  1.000000000000000E+00
  1.000000000000000E+00
  1.000000000000000E+00
  1.000000000000000E+00
  1.000000000000000E+00
SCALARS Entrained_Volume_Fraction float
LOOKUP_TABLE default
  0.000000000000000E+00
  0.000000000000000E+00
  0.000000000000000E+00
  0.000000000000000E+00
  0.000000000000000E+00
  0.000000000000000E+00
  0.000000000000000E+00
  0.000000000000000E+00
  0.000000000000000E+00
  0.000000000000000E+00
SCALARS Vapor_Volume_Fraction float
LOOKUP_TABLE default
  0.000000000000000E+00
  0.000000000000000E+00
  0.000000000000000E+00
  0.000000000000000E+00
  0.000000000000000E+00
  0.000000000000000E+00
  0.000000000000000E+00
  0.000000000000000E+00
  0.000000000000000E+00
  0.000000000000000E+00
SCALARS Pressure float
LOOKUP_TABLE default
  1.650000246565780E+02
  1.650000242503064E+02
  1.650000227519949E+02
  1.650000200984076E+02
  1.650000166385827E+02
  1.650000130624502E+02
  1.650000100076846E+02
  1.650000077974658E+02
  1.650000064237025E+02
  1.650000056829415E+02
SCALARS Liquid_Enthalpy float
LOOKUP_TABLE default
  1.289216340952889E+03
  1.289540816473018E+03
  1.290294207582025E+03
  1.291520546967288E+03
  1.293065485031606E+03
  1.294649011664304E+03
  1.296007183205226E+03
  1.296996819176450E+03
  1.297612199976597E+03
  1.297995478738396E+03
SCALARS Vapor_Enthalpy float
LOOKUP_TABLE default
  2.568693940284235E+03
  2.568693940284235E+03
  2.568693940284235E+03
  2.568693940284235E+03
  2.568693940284235E+03
  2.568693940284235E+03
  2.568693940284235E+03
  2.568693940284235E+03
  2.568693940284235E+03
  2.568693940284235E+03
SCALARS Liquid_Density float
LOOKUP_TABLE default
  7.467550316774308E+02
  7.466368398020919E+02
  7.463622570779315E+02
  7.459148354637585E+02
  7.453503504572252E+02
  7.447708098970805E+02
  7.442729723789240E+02
  7.439097714278890E+02
  7.436837322770773E+02
  7.435428736137711E+02
SCALARS Vapor_Density float
LOOKUP_TABLE default
  1.130347851207606E+02
  1.130347851207606E+02
  1.130347851207606E+02
  1.130347851207606E+02
  1.130347851207606E+02
  1.130347851207606E+02
  1.130347851207606E+02
  1.130347851207606E+02
  1.130347851207606E+02
  1.130347851207606E+02
SCALARS Vapor_Generation float
LOOKUP_TABLE default
  0.000000000000000E+00
  0.000000000000000E+00
  0.000000000000000E+00
  0.000000000000000E+00
  0.000000000000000E+00
  0.000000000000000E+00
  0.000000000000000E+00
  0.000000000000000E+00
  0.000000000000000E+00
  0.000000000000000E+00
SCALARS Scalar_Cell_Flow_Area float
LOOKUP_TABLE default
  8.787781599999999E-05
  8.787781599999999E-05
  8.787781599999999E-05
  8.787781599999999E-05
  8.787781599999999E-05
  8.787781599999999E-05
  8.787781599999999E-05
  8.787781599999999E-05
  8.787781599999999E-05
  8.787781599999999E-05
SCALARS Channel_Wetted_Perimeter float
LOOKUP_TABLE default
  2.984513019999999E-02
  2.984513019999999E-02
  2.984513019999999E-02
  2.984513019999999E-02
  2.984513019999999E-02
  2.984513019999999E-02
  2.984513019999999E-02
  2.984513019999999E-02
  2.984513019999999E-02
  2.984513019999999E-02
SCALARS Equilibrium_Quality float
LOOKUP_TABLE default
                    NaN
                    NaN
                    NaN
                    NaN
                    NaN
                    NaN
                    NaN
                    NaN
                    NaN
                    NaN
SCALARS Mixture_Temperature_C float
LOOKUP_TABLE default
                    NaN
                    NaN
                    NaN
                    NaN
                    NaN
                    NaN
                    NaN
                    NaN
                    NaN
                    NaN
SCALARS Mixture_Mass_Flux_kg/s/m**2 float
LOOKUP_TABLE default
                    NaN
                    NaN
                    NaN
                    NaN
                    NaN
                    NaN
                    NaN
                    NaN
                    NaN
                    NaN
VECTORS Liquid_velocity float
  0.000000000000000E+00  0.000000000000000E+00  4.571635456589054E+00
  0.000000000000000E+00  0.000000000000000E+00  4.572123351396952E+00
  0.000000000000000E+00  0.000000000000000E+00  4.572897500312648E+00
  0.000000000000000E+00  0.000000000000000E+00  4.573790096745400E+00
  0.000000000000000E+00  0.000000000000000E+00  4.574564810164857E+00
  0.000000000000000E+00  0.000000000000000E+00  4.575054251184074E+00
  0.000000000000000E+00  0.000000000000000E+00  4.575233066509805E+00
  0.000000000000000E+00  0.000000000000000E+00  4.575189847206807E+00
  0.000000000000000E+00  0.000000000000000E+00  4.575081833253786E+00
  0.000000000000000E+00  0.000000000000000E+00  4.574914382356373E+00
VECTORS Vapor_velocity float
  0.000000000000000E+00  0.000000000000000E+00                    NaN
  0.000000000000000E+00  0.000000000000000E+00                    NaN
  0.000000000000000E+00  0.000000000000000E+00                    NaN
  0.000000000000000E+00  0.000000000000000E+00                    NaN
  0.000000000000000E+00  0.000000000000000E+00                    NaN
  0.000000000000000E+00  0.000000000000000E+00                    NaN
  0.000000000000000E+00  0.000000000000000E+00                    NaN
  0.000000000000000E+00  0.000000000000000E+00                    NaN
  0.000000000000000E+00  0.000000000000000E+00                    NaN
  0.000000000000000E+00  0.000000000000000E+00                    NaN
VECTORS Droplet_velocity float
  0.000000000000000E+00  0.000000000000000E+00                    NaN
  0.000000000000000E+00  0.000000000000000E+00                    NaN
  0.000000000000000E+00  0.000000000000000E+00                    NaN
  0.000000000000000E+00  0.000000000000000E+00                    NaN
  0.000000000000000E+00  0.000000000000000E+00                    NaN
  0.000000000000000E+00  0.000000000000000E+00                    NaN
  0.000000000000000E+00  0.000000000000000E+00                    NaN
  0.000000000000000E+00  0.000000000000000E+00                    NaN
  0.000000000000000E+00  0.000000000000000E+00                    NaN
  0.000000000000000E+00  0.000000000000000E+00                    NaN
