# vtk DataFile Version 2.0
Scalar Data
ASCII
DATASET UNSTRUCTURED_GRID
FIELD FieldData 2
Time 1 1 double
  1.751816438781834E+00
  dt 1 1 double
  5.000000000000000E-03
POINTS          80 double
 -7.00000000E-03 -7.00000000E-03  0.00000000E+00
  0.00000000E+00 -7.00000000E-03  0.00000000E+00
 -7.00000000E-03  0.00000000E+00  0.00000000E+00
  0.00000000E+00  0.00000000E+00  0.00000000E+00
 -7.00000000E-03 -7.00000000E-03  3.67500000E-01
  0.00000000E+00 -7.00000000E-03  3.67500000E-01
 -7.00000000E-03  0.00000000E+00  3.67500000E-01
  0.00000000E+00  0.00000000E+00  3.67500000E-01
 -7.00000000E-03 -7.00000000E-03  3.67500000E-01
  0.00000000E+00 -7.00000000E-03  3.67500000E-01
 -7.00000000E-03  0.00000000E+00  3.67500000E-01
  0.00000000E+00  0.00000000E+00  3.67500000E-01
 -7.00000000E-03 -7.00000000E-03  7.35000000E-01
  0.00000000E+00 -7.00000000E-03  7.35000000E-01
 -7.00000000E-03  0.00000000E+00  7.35000000E-01
  0.00000000E+00  0.00000000E+00  7.35000000E-01
 -7.00000000E-03 -7.00000000E-03  7.35000000E-01
  0.00000000E+00 -7.00000000E-03  7.35000000E-01
 -7.00000000E-03  0.00000000E+00  7.35000000E-01
  0.00000000E+00  0.00000000E+00  7.35000000E-01
 -7.00000000E-03 -7.00000000E-03  1.10250000E+00
  0.00000000E+00 -7.00000000E-03  1.10250000E+00
 -7.00000000E-03  0.00000000E+00  1.10250000E+00
  0.00000000E+00  0.00000000E+00  1.10250000E+00
 -7.00000000E-03 -7.00000000E-03  1.10250000E+00
  0.00000000E+00 -7.00000000E-03  1.10250000E+00
 -7.00000000E-03  0.00000000E+00  1.10250000E+00
  0.00000000E+00  0.00000000E+00  1.10250000E+00
 -7.00000000E-03 -7.00000000E-03  1.47000000E+00
  0.00000000E+00 -7.00000000E-03  1.47000000E+00
 -7.00000000E-03  0.00000000E+00  1.47000000E+00
  0.00000000E+00  0.00000000E+00  1.47000000E+00
 -7.00000000E-03 -7.00000000E-03  1.47000000E+00
  0.00000000E+00 -7.00000000E-03  1.47000000E+00
 -7.00000000E-03  0.00000000E+00  1.47000000E+00
  0.00000000E+00  0.00000000E+00  1.47000000E+00
 -7.00000000E-03 -7.00000000E-03  1.83750000E+00
  0.00000000E+00 -7.00000000E-03  1.83750000E+00
 -7.00000000E-03  0.00000000E+00  1.83750000E+00
  0.00000000E+00  0.00000000E+00  1.83750000E+00
 -7.00000000E-03 -7.00000000E-03  1.83750000E+00
  0.00000000E+00 -7.00000000E-03  1.83750000E+00
 -7.00000000E-03  0.00000000E+00  1.83750000E+00
  0.00000000E+00  0.00000000E+00  1.83750000E+00
 -7.00000000E-03 -7.00000000E-03  2.20500000E+00
  0.00000000E+00 -7.00000000E-03  2.20500000E+00
 -7.00000000E-03  0.00000000E+00  2.20500000E+00
  0.00000000E+00  0.00000000E+00  2.20500000E+00
 -7.00000000E-03 -7.00000000E-03  2.20500000E+00
  0.00000000E+00 -7.00000000E-03  2.20500000E+00
 -7.00000000E-03  0.00000000E+00  2.20500000E+00
  0.00000000E+00  0.00000000E+00  2.20500000E+00
 -7.00000000E-03 -7.00000000E-03  2.57250000E+00
  0.00000000E+00 -7.00000000E-03  2.57250000E+00
 -7.00000000E-03  0.00000000E+00  2.57250000E+00
  0.00000000E+00  0.00000000E+00  2.57250000E+00
 -7.00000000E-03 -7.00000000E-03  2.57250000E+00
  0.00000000E+00 -7.00000000E-03  2.57250000E+00
 -7.00000000E-03  0.00000000E+00  2.57250000E+00
  0.00000000E+00  0.00000000E+00  2.57250000E+00
 -7.00000000E-03 -7.00000000E-03  2.94000000E+00
  0.00000000E+00 -7.00000000E-03  2.94000000E+00
 -7.00000000E-03  0.00000000E+00  2.94000000E+00
  0.00000000E+00  0.00000000E+00  2.94000000E+00
 -7.00000000E-03 -7.00000000E-03  2.94000000E+00
  0.00000000E+00 -7.00000000E-03  2.94000000E+00
 -7.00000000E-03  0.00000000E+00  2.94000000E+00
  0.00000000E+00  0.00000000E+00  2.94000000E+00
 -7.00000000E-03 -7.00000000E-03  3.30750000E+00
  0.00000000E+00 -7.00000000E-03  3.30750000E+00
 -7.00000000E-03  0.00000000E+00  3.30750000E+00
  0.00000000E+00  0.00000000E+00  3.30750000E+00
 -7.00000000E-03 -7.00000000E-03  3.30750000E+00
  0.00000000E+00 -7.00000000E-03  3.30750000E+00
 -7.00000000E-03  0.00000000E+00  3.30750000E+00
  0.00000000E+00  0.00000000E+00  3.30750000E+00
 -7.00000000E-03 -7.00000000E-03  3.67500000E+00
  0.00000000E+00 -7.00000000E-03  3.67500000E+00
 -7.00000000E-03  0.00000000E+00  3.67500000E+00
  0.00000000E+00  0.00000000E+00  3.67500000E+00
CELLS        10        90
         8         0         1         2         3         4         5         6         7
         8         8         9        10        11        12        13        14        15
         8        16        17        18        19        20        21        22        23
         8        24        25        26        27        28        29        30        31
         8        32        33        34        35        36        37        38        39
         8        40        41        42        43        44        45        46        47
         8        48        49        50        51        52        53        54        55
         8        56        57        58        59        60        61        62        63
         8        64        65        66        67        68        69        70        71
         8        72        73        74        75        76        77        78        79
CELL_TYPES      10
11
11
11
11
11
11
11
11
11
11
CELL_DATA      10
SCALARS Liquid_Volume_Fraction float
LOOKUP_TABLE default
  1.000000000000000E+00
  1.000000000000000E+00
  1.000000000000000E+00
  1.000000000000000E+00
  1.000000000000000E+00
  1.000000000000000E+00
  1.000000000000000E+00
  1.000000000000000E+00
  1.000000000000000E+00
  1.000000000000000E+00
SCALARS Entrained_Volume_Fraction float
LOOKUP_TABLE default
  0.000000000000000E+00
  0.000000000000000E+00
  0.000000000000000E+00
  0.000000000000000E+00
  0.000000000000000E+00
  0.000000000000000E+00
  0.000000000000000E+00
  0.000000000000000E+00
  0.000000000000000E+00
  0.000000000000000E+00
SCALARS Vapor_Volume_Fraction float
LOOKUP_TABLE default
  0.000000000000000E+00
  0.000000000000000E+00
  0.000000000000000E+00
  0.000000000000000E+00
  0.000000000000000E+00
  0.000000000000000E+00
  0.000000000000000E+00
  0.000000000000000E+00
  0.000000000000000E+00
  0.000000000000000E+00
SCALARS Pressure float
LOOKUP_TABLE default
  1.650000027509532E+02
  1.650000027508919E+02
  1.650000027507276E+02
  1.650000027499439E+02
  1.650000027466571E+02
  1.650000027356604E+02
  1.650000027052961E+02
  1.650000026337235E+02
  1.650000024860973E+02
  1.650000022147849E+02
SCALARS Liquid_Enthalpy float
LOOKUP_TABLE default
  1.289142700335319E+03
  1.289142720902789E+03
  1.289142866854145E+03
  1.289143560814175E+03
  1.289146085022822E+03
  1.289153584919421E+03
  1.289172519177892E+03
  1.289214218801833E+03
  1.289295850312263E+03
  1.289485753301735E+03
SCALARS Vapor_Enthalpy float
LOOKUP_TABLE default
  2.568693940284235E+03
  2.568693940284235E+03
  2.568693940284235E+03
  2.568693940284235E+03
  2.568693940284235E+03
  2.568693940284235E+03
  2.568693940284235E+03
  2.568693940284235E+03
  2.568693940284235E+03
  2.568693940284235E+03
SCALARS Liquid_Density float
LOOKUP_TABLE default
  7.467818460671234E+02
  7.467818385771736E+02
  7.467817854268631E+02
  7.467815327111056E+02
  7.467806134817407E+02
  7.467778822644962E+02
  7.467709869297563E+02
  7.467558005903908E+02
  7.467260697587320E+02
  7.466568957203590E+02
SCALARS Vapor_Density float
LOOKUP_TABLE default
  1.130347851207606E+02
  1.130347851207606E+02
  1.130347851207606E+02
  1.130347851207606E+02
  1.130347851207606E+02
  1.130347851207606E+02
  1.130347851207606E+02
  1.130347851207606E+02
  1.130347851207606E+02
  1.130347851207606E+02
SCALARS Vapor_Generation float
LOOKUP_TABLE default
  0.000000000000000E+00
  0.000000000000000E+00
  0.000000000000000E+00
  0.000000000000000E+00
  0.000000000000000E+00
  0.000000000000000E+00
  0.000000000000000E+00
  0.000000000000000E+00
  0.000000000000000E+00
  0.000000000000000E+00
SCALARS Scalar_Cell_Flow_Area float
LOOKUP_TABLE default
  8.787781599999999E-05
  8.787781599999999E-05
  8.787781599999999E-05
  8.787781599999999E-05
  8.787781599999999E-05
  8.787781599999999E-05
  8.787781599999999E-05
  8.787781599999999E-05
  8.787781599999999E-05
  8.787781599999999E-05
SCALARS Channel_Wetted_Perimeter float
LOOKUP_TABLE default
  2.984513019999999E-02
  2.984513019999999E-02
  2.984513019999999E-02
  2.984513019999999E-02
  2.984513019999999E-02
  2.984513019999999E-02
  2.984513019999999E-02
  2.984513019999999E-02
  2.984513019999999E-02
  2.984513019999999E-02
SCALARS Equilibrium_Quality float
LOOKUP_TABLE default
                    NaN
                    NaN
                    NaN
                    NaN
                    NaN
                    NaN
                    NaN
                    NaN
                    NaN
                    NaN
SCALARS Mixture_Temperature_C float
LOOKUP_TABLE default
                    NaN
                    NaN
                    NaN
                    NaN
                    NaN
                    NaN
                    NaN
                    NaN
                    NaN
                    NaN
SCALARS Mixture_Mass_Flux_kg/s/m**2 float
LOOKUP_TABLE default
                    NaN
                    NaN
                    NaN
                    NaN
                    NaN
                    NaN
                    NaN
                    NaN
                    NaN
                    NaN
VECTORS Liquid_velocity float
  0.000000000000000E+00  0.000000000000000E+00  4.571391449669415E+00
  0.000000000000000E+00  0.000000000000000E+00  4.571389823511137E+00
  0.000000000000000E+00  0.000000000000000E+00  4.571390248072296E+00
  0.000000000000000E+00  0.000000000000000E+00  4.571391809162175E+00
  0.000000000000000E+00  0.000000000000000E+00  4.571396470513093E+00
  0.000000000000000E+00  0.000000000000000E+00  4.571408227253845E+00
  0.000000000000000E+00  0.000000000000000E+00  4.571433948598280E+00
  0.000000000000000E+00  0.000000000000000E+00  4.571483693899924E+00
  0.000000000000000E+00  0.000000000000000E+00  4.571595510081160E+00
  0.000000000000000E+00  0.000000000000000E+00  4.571638902282244E+00
VECTORS Vapor_velocity float
  0.000000000000000E+00  0.000000000000000E+00                    NaN
  0.000000000000000E+00  0.000000000000000E+00                    NaN
  0.000000000000000E+00  0.000000000000000E+00                    NaN
  0.000000000000000E+00  0.000000000000000E+00                    NaN
  0.000000000000000E+00  0.000000000000000E+00                    NaN
  0.000000000000000E+00  0.000000000000000E+00                    NaN
  0.000000000000000E+00  0.000000000000000E+00                    NaN
  0.000000000000000E+00  0.000000000000000E+00                    NaN
  0.000000000000000E+00  0.000000000000000E+00                    NaN
  0.000000000000000E+00  0.000000000000000E+00                    NaN
VECTORS Droplet_velocity float
  0.000000000000000E+00  0.000000000000000E+00                    NaN
  0.000000000000000E+00  0.000000000000000E+00                    NaN
  0.000000000000000E+00  0.000000000000000E+00                    NaN
  0.000000000000000E+00  0.000000000000000E+00                    NaN
  0.000000000000000E+00  0.000000000000000E+00                    NaN
  0.000000000000000E+00  0.000000000000000E+00                    NaN
  0.000000000000000E+00  0.000000000000000E+00                    NaN
  0.000000000000000E+00  0.000000000000000E+00                    NaN
  0.000000000000000E+00  0.000000000000000E+00                    NaN
  0.000000000000000E+00  0.000000000000000E+00                    NaN
