# vtk DataFile Version 2.0
Scalar Data
ASCII
DATASET UNSTRUCTURED_GRID
POINTS         640 double
 -7.00000000E-03 -7.00000000E-03  0.00000000E+00
  0.00000000E+00 -7.00000000E-03  0.00000000E+00
 -7.00000000E-03  0.00000000E+00  0.00000000E+00
  0.00000000E+00  0.00000000E+00  0.00000000E+00
 -7.00000000E-03 -7.00000000E-03  1.82900000E-01
  0.00000000E+00 -7.00000000E-03  1.82900000E-01
 -7.00000000E-03  0.00000000E+00  1.82900000E-01
  0.00000000E+00  0.00000000E+00  1.82900000E-01
 -7.00000000E-03 -7.00000000E-03  1.82900000E-01
  0.00000000E+00 -7.00000000E-03  1.82900000E-01
 -7.00000000E-03  0.00000000E+00  1.82900000E-01
  0.00000000E+00  0.00000000E+00  1.82900000E-01
 -7.00000000E-03 -7.00000000E-03  3.65800000E-01
  0.00000000E+00 -7.00000000E-03  3.65800000E-01
 -7.00000000E-03  0.00000000E+00  3.65800000E-01
  0.00000000E+00  0.00000000E+00  3.65800000E-01
 -7.00000000E-03 -7.00000000E-03  3.65800000E-01
  0.00000000E+00 -7.00000000E-03  3.65800000E-01
 -7.00000000E-03  0.00000000E+00  3.65800000E-01
  0.00000000E+00  0.00000000E+00  3.65800000E-01
 -7.00000000E-03 -7.00000000E-03  5.48700000E-01
  0.00000000E+00 -7.00000000E-03  5.48700000E-01
 -7.00000000E-03  0.00000000E+00  5.48700000E-01
  0.00000000E+00  0.00000000E+00  5.48700000E-01
 -7.00000000E-03 -7.00000000E-03  5.48700000E-01
  0.00000000E+00 -7.00000000E-03  5.48700000E-01
 -7.00000000E-03  0.00000000E+00  5.48700000E-01
  0.00000000E+00  0.00000000E+00  5.48700000E-01
 -7.00000000E-03 -7.00000000E-03  7.31600000E-01
  0.00000000E+00 -7.00000000E-03  7.31600000E-01
 -7.00000000E-03  0.00000000E+00  7.31600000E-01
  0.00000000E+00  0.00000000E+00  7.31600000E-01
 -7.00000000E-03 -7.00000000E-03  7.31600000E-01
  0.00000000E+00 -7.00000000E-03  7.31600000E-01
 -7.00000000E-03  0.00000000E+00  7.31600000E-01
  0.00000000E+00  0.00000000E+00  7.31600000E-01
 -7.00000000E-03 -7.00000000E-03  9.14500000E-01
  0.00000000E+00 -7.00000000E-03  9.14500000E-01
 -7.00000000E-03  0.00000000E+00  9.14500000E-01
  0.00000000E+00  0.00000000E+00  9.14500000E-01
 -7.00000000E-03 -7.00000000E-03  9.14500000E-01
  0.00000000E+00 -7.00000000E-03  9.14500000E-01
 -7.00000000E-03  0.00000000E+00  9.14500000E-01
  0.00000000E+00  0.00000000E+00  9.14500000E-01
 -7.00000000E-03 -7.00000000E-03  1.09740000E+00
  0.00000000E+00 -7.00000000E-03  1.09740000E+00
 -7.00000000E-03  0.00000000E+00  1.09740000E+00
  0.00000000E+00  0.00000000E+00  1.09740000E+00
 -7.00000000E-03 -7.00000000E-03  1.09740000E+00
  0.00000000E+00 -7.00000000E-03  1.09740000E+00
 -7.00000000E-03  0.00000000E+00  1.09740000E+00
  0.00000000E+00  0.00000000E+00  1.09740000E+00
 -7.00000000E-03 -7.00000000E-03  1.28030000E+00
  0.00000000E+00 -7.00000000E-03  1.28030000E+00
 -7.00000000E-03  0.00000000E+00  1.28030000E+00
  0.00000000E+00  0.00000000E+00  1.28030000E+00
 -7.00000000E-03 -7.00000000E-03  1.28030000E+00
  0.00000000E+00 -7.00000000E-03  1.28030000E+00
 -7.00000000E-03  0.00000000E+00  1.28030000E+00
  0.00000000E+00  0.00000000E+00  1.28030000E+00
 -7.00000000E-03 -7.00000000E-03  1.46320000E+00
  0.00000000E+00 -7.00000000E-03  1.46320000E+00
 -7.00000000E-03  0.00000000E+00  1.46320000E+00
  0.00000000E+00  0.00000000E+00  1.46320000E+00
 -7.00000000E-03 -7.00000000E-03  1.46320000E+00
  0.00000000E+00 -7.00000000E-03  1.46320000E+00
 -7.00000000E-03  0.00000000E+00  1.46320000E+00
  0.00000000E+00  0.00000000E+00  1.46320000E+00
 -7.00000000E-03 -7.00000000E-03  1.64610000E+00
  0.00000000E+00 -7.00000000E-03  1.64610000E+00
 -7.00000000E-03  0.00000000E+00  1.64610000E+00
  0.00000000E+00  0.00000000E+00  1.64610000E+00
 -7.00000000E-03 -7.00000000E-03  1.64610000E+00
  0.00000000E+00 -7.00000000E-03  1.64610000E+00
 -7.00000000E-03  0.00000000E+00  1.64610000E+00
  0.00000000E+00  0.00000000E+00  1.64610000E+00
 -7.00000000E-03 -7.00000000E-03  1.82900000E+00
  0.00000000E+00 -7.00000000E-03  1.82900000E+00
 -7.00000000E-03  0.00000000E+00  1.82900000E+00
  0.00000000E+00  0.00000000E+00  1.82900000E+00
 -7.00000000E-03 -7.00000000E-03  1.82900000E+00
  0.00000000E+00 -7.00000000E-03  1.82900000E+00
 -7.00000000E-03  0.00000000E+00  1.82900000E+00
  0.00000000E+00  0.00000000E+00  1.82900000E+00
 -7.00000000E-03 -7.00000000E-03  2.01190000E+00
  0.00000000E+00 -7.00000000E-03  2.01190000E+00
 -7.00000000E-03  0.00000000E+00  2.01190000E+00
  0.00000000E+00  0.00000000E+00  2.01190000E+00
 -7.00000000E-03 -7.00000000E-03  2.01190000E+00
  0.00000000E+00 -7.00000000E-03  2.01190000E+00
 -7.00000000E-03  0.00000000E+00  2.01190000E+00
  0.00000000E+00  0.00000000E+00  2.01190000E+00
 -7.00000000E-03 -7.00000000E-03  2.19480000E+00
  0.00000000E+00 -7.00000000E-03  2.19480000E+00
 -7.00000000E-03  0.00000000E+00  2.19480000E+00
  0.00000000E+00  0.00000000E+00  2.19480000E+00
 -7.00000000E-03 -7.00000000E-03  2.19480000E+00
  0.00000000E+00 -7.00000000E-03  2.19480000E+00
 -7.00000000E-03  0.00000000E+00  2.19480000E+00
  0.00000000E+00  0.00000000E+00  2.19480000E+00
 -7.00000000E-03 -7.00000000E-03  2.37770000E+00
  0.00000000E+00 -7.00000000E-03  2.37770000E+00
 -7.00000000E-03  0.00000000E+00  2.37770000E+00
  0.00000000E+00  0.00000000E+00  2.37770000E+00
 -7.00000000E-03 -7.00000000E-03  2.37770000E+00
  0.00000000E+00 -7.00000000E-03  2.37770000E+00
 -7.00000000E-03  0.00000000E+00  2.37770000E+00
  0.00000000E+00  0.00000000E+00  2.37770000E+00
 -7.00000000E-03 -7.00000000E-03  2.56060000E+00
  0.00000000E+00 -7.00000000E-03  2.56060000E+00
 -7.00000000E-03  0.00000000E+00  2.56060000E+00
  0.00000000E+00  0.00000000E+00  2.56060000E+00
 -7.00000000E-03 -7.00000000E-03  2.56060000E+00
  0.00000000E+00 -7.00000000E-03  2.56060000E+00
 -7.00000000E-03  0.00000000E+00  2.56060000E+00
  0.00000000E+00  0.00000000E+00  2.56060000E+00
 -7.00000000E-03 -7.00000000E-03  2.74350000E+00
  0.00000000E+00 -7.00000000E-03  2.74350000E+00
 -7.00000000E-03  0.00000000E+00  2.74350000E+00
  0.00000000E+00  0.00000000E+00  2.74350000E+00
 -7.00000000E-03 -7.00000000E-03  2.74350000E+00
  0.00000000E+00 -7.00000000E-03  2.74350000E+00
 -7.00000000E-03  0.00000000E+00  2.74350000E+00
  0.00000000E+00  0.00000000E+00  2.74350000E+00
 -7.00000000E-03 -7.00000000E-03  2.92640000E+00
  0.00000000E+00 -7.00000000E-03  2.92640000E+00
 -7.00000000E-03  0.00000000E+00  2.92640000E+00
  0.00000000E+00  0.00000000E+00  2.92640000E+00
 -7.00000000E-03 -7.00000000E-03  2.92640000E+00
  0.00000000E+00 -7.00000000E-03  2.92640000E+00
 -7.00000000E-03  0.00000000E+00  2.92640000E+00
  0.00000000E+00  0.00000000E+00  2.92640000E+00
 -7.00000000E-03 -7.00000000E-03  3.10930000E+00
  0.00000000E+00 -7.00000000E-03  3.10930000E+00
 -7.00000000E-03  0.00000000E+00  3.10930000E+00
  0.00000000E+00  0.00000000E+00  3.10930000E+00
 -7.00000000E-03 -7.00000000E-03  3.10930000E+00
  0.00000000E+00 -7.00000000E-03  3.10930000E+00
 -7.00000000E-03  0.00000000E+00  3.10930000E+00
  0.00000000E+00  0.00000000E+00  3.10930000E+00
 -7.00000000E-03 -7.00000000E-03  3.29220000E+00
  0.00000000E+00 -7.00000000E-03  3.29220000E+00
 -7.00000000E-03  0.00000000E+00  3.29220000E+00
  0.00000000E+00  0.00000000E+00  3.29220000E+00
 -7.00000000E-03 -7.00000000E-03  3.29220000E+00
  0.00000000E+00 -7.00000000E-03  3.29220000E+00
 -7.00000000E-03  0.00000000E+00  3.29220000E+00
  0.00000000E+00  0.00000000E+00  3.29220000E+00
 -7.00000000E-03 -7.00000000E-03  3.47510000E+00
  0.00000000E+00 -7.00000000E-03  3.47510000E+00
 -7.00000000E-03  0.00000000E+00  3.47510000E+00
  0.00000000E+00  0.00000000E+00  3.47510000E+00
 -7.00000000E-03 -7.00000000E-03  3.47510000E+00
  0.00000000E+00 -7.00000000E-03  3.47510000E+00
 -7.00000000E-03  0.00000000E+00  3.47510000E+00
  0.00000000E+00  0.00000000E+00  3.47510000E+00
 -7.00000000E-03 -7.00000000E-03  3.65800000E+00
  0.00000000E+00 -7.00000000E-03  3.65800000E+00
 -7.00000000E-03  0.00000000E+00  3.65800000E+00
  0.00000000E+00  0.00000000E+00  3.65800000E+00
  0.00000000E+00 -7.00000000E-03  0.00000000E+00
  7.00000000E-03 -7.00000000E-03  0.00000000E+00
  0.00000000E+00  0.00000000E+00  0.00000000E+00
  7.00000000E-03  0.00000000E+00  0.00000000E+00
  0.00000000E+00 -7.00000000E-03  1.82900000E-01
  7.00000000E-03 -7.00000000E-03  1.82900000E-01
  0.00000000E+00  0.00000000E+00  1.82900000E-01
  7.00000000E-03  0.00000000E+00  1.82900000E-01
  0.00000000E+00 -7.00000000E-03  1.82900000E-01
  7.00000000E-03 -7.00000000E-03  1.82900000E-01
  0.00000000E+00  0.00000000E+00  1.82900000E-01
  7.00000000E-03  0.00000000E+00  1.82900000E-01
  0.00000000E+00 -7.00000000E-03  3.65800000E-01
  7.00000000E-03 -7.00000000E-03  3.65800000E-01
  0.00000000E+00  0.00000000E+00  3.65800000E-01
  7.00000000E-03  0.00000000E+00  3.65800000E-01
  0.00000000E+00 -7.00000000E-03  3.65800000E-01
  7.00000000E-03 -7.00000000E-03  3.65800000E-01
  0.00000000E+00  0.00000000E+00  3.65800000E-01
  7.00000000E-03  0.00000000E+00  3.65800000E-01
  0.00000000E+00 -7.00000000E-03  5.48700000E-01
  7.00000000E-03 -7.00000000E-03  5.48700000E-01
  0.00000000E+00  0.00000000E+00  5.48700000E-01
  7.00000000E-03  0.00000000E+00  5.48700000E-01
  0.00000000E+00 -7.00000000E-03  5.48700000E-01
  7.00000000E-03 -7.00000000E-03  5.48700000E-01
  0.00000000E+00  0.00000000E+00  5.48700000E-01
  7.00000000E-03  0.00000000E+00  5.48700000E-01
  0.00000000E+00 -7.00000000E-03  7.31600000E-01
  7.00000000E-03 -7.00000000E-03  7.31600000E-01
  0.00000000E+00  0.00000000E+00  7.31600000E-01
  7.00000000E-03  0.00000000E+00  7.31600000E-01
  0.00000000E+00 -7.00000000E-03  7.31600000E-01
  7.00000000E-03 -7.00000000E-03  7.31600000E-01
  0.00000000E+00  0.00000000E+00  7.31600000E-01
  7.00000000E-03  0.00000000E+00  7.31600000E-01
  0.00000000E+00 -7.00000000E-03  9.14500000E-01
  7.00000000E-03 -7.00000000E-03  9.14500000E-01
  0.00000000E+00  0.00000000E+00  9.14500000E-01
  7.00000000E-03  0.00000000E+00  9.14500000E-01
  0.00000000E+00 -7.00000000E-03  9.14500000E-01
  7.00000000E-03 -7.00000000E-03  9.14500000E-01
[...]
CELL_DATA      80
SCALARS Liquid_Volume_Fraction float
LOOKUP_TABLE default
  9.999984999999977E-01
  9.999984999999952E-01
  9.999984999999929E-01
  9.999984999999904E-01
  9.999984999999879E-01
  9.999984999999854E-01
  9.999984999999828E-01
  9.999984999999801E-01
  9.999984999999776E-01
  9.999984999999748E-01
  9.999984999999721E-01
  9.999984999999693E-01
  9.999984999999665E-01
  9.999984999999636E-01
  9.999984999999607E-01
  9.999984999999577E-01
  9.999984999999547E-01
  9.999984999999516E-01
  9.999984999999485E-01
  9.999984999999453E-01
  9.999984999999977E-01
  9.999984999999952E-01
  9.999984999999929E-01
  9.999984999999904E-01
  9.999984999999879E-01
  9.999984999999854E-01
  9.999984999999828E-01
  9.999984999999801E-01
  9.999984999999776E-01
  9.999984999999748E-01
  9.999984999999721E-01
  9.999984999999693E-01
  9.999984999999665E-01
  9.999984999999636E-01
  9.999984999999607E-01
  9.999984999999577E-01
  9.999984999999547E-01
  9.999984999999516E-01
  9.999984999999485E-01
  9.999984999999453E-01
  9.999984999999977E-01
  9.999984999999952E-01
  9.999984999999929E-01
  9.999984999999904E-01
  9.999984999999879E-01
  9.999984999999854E-01
  9.999984999999828E-01
  9.999984999999801E-01
  9.999984999999776E-01
  9.999984999999748E-01
  9.999984999999721E-01
  9.999984999999693E-01
  9.999984999999665E-01
  9.999984999999636E-01
  9.999984999999607E-01
  9.999984999999577E-01
  9.999984999999547E-01
  9.999984999999516E-01
  9.999984999999485E-01
  9.999984999999453E-01
  9.999984999999977E-01
  9.999984999999952E-01
  9.999984999999929E-01
  9.999984999999904E-01
  9.999984999999879E-01
  9.999984999999854E-01
  9.999984999999828E-01
  9.999984999999801E-01
  9.999984999999776E-01
  9.999984999999748E-01
  9.999984999999721E-01
  9.999984999999693E-01
  9.999984999999665E-01
  9.999984999999636E-01
  9.999984999999607E-01
  9.999984999999577E-01
  9.999984999999547E-01
  9.999984999999516E-01
  9.999984999999485E-01
  9.999984999999453E-01
SCALARS Entrained_Volume_Fraction float
LOOKUP_TABLE default
  5.000000023273980E-07
  5.000000047046866E-07
  5.000000071193325E-07
  5.000000095721951E-07
  5.000000120640712E-07
  5.000000145957656E-07
  5.000000171680932E-07
  5.000000197818775E-07
  5.000000224379526E-07
  5.000000251371612E-07
  5.000000278803548E-07
  5.000000306683867E-07
  5.000000335020992E-07
  5.000000363822949E-07
  5.000000393096789E-07
  5.000000422847595E-07
  5.000000453076809E-07
  5.000000483779688E-07
  5.000000514941669E-07
  5.000000546533140E-07
  5.000000023273980E-07
  5.000000047046866E-07
  5.000000071193325E-07
  5.000000095721951E-07
  5.000000120640712E-07
  5.000000145957656E-07
  5.000000171680932E-07
  5.000000197818775E-07
  5.000000224379526E-07
  5.000000251371612E-07
  5.000000278803548E-07
  5.000000306683867E-07
  5.000000335020992E-07
  5.000000363822949E-07
  5.000000393096789E-07
  5.000000422847595E-07
  5.000000453076809E-07
  5.000000483779688E-07
  5.000000514941669E-07
  5.000000546533140E-07
  5.000000023273980E-07
  5.000000047046866E-07
  5.000000071193325E-07
  5.000000095721951E-07
  5.000000120640712E-07
  5.000000145957656E-07
  5.000000171680932E-07
  5.000000197818775E-07
  5.000000224379526E-07
  5.000000251371612E-07
  5.000000278803548E-07
  5.000000306683867E-07
  5.000000335020992E-07
  5.000000363822949E-07
  5.000000393096789E-07
  5.000000422847595E-07
  5.000000453076809E-07
  5.000000483779688E-07
  5.000000514941669E-07
  5.000000546533140E-07
  5.000000023273980E-07
  5.000000047046866E-07
  5.000000071193325E-07
  5.000000095721951E-07
  5.000000120640712E-07
  5.000000145957656E-07
  5.000000171680932E-07
  5.000000197818775E-07
  5.000000224379526E-07
  5.000000251371612E-07
  5.000000278803548E-07
  5.000000306683867E-07
  5.000000335020992E-07
  5.000000363822949E-07
  5.000000393096789E-07
  5.000000422847595E-07
  5.000000453076809E-07
  5.000000483779688E-07
  5.000000514941669E-07
  5.000000546533140E-07
SCALARS Vapor_Volume_Fraction float
LOOKUP_TABLE default
  1.000000000028756E-06
  1.000000000028756E-06
  1.000000000028756E-06
  1.000000000028756E-06
  1.000000000028756E-06
  1.000000000028756E-06
  1.000000000028756E-06
  1.000000000028756E-06
  1.000000000028756E-06
  1.000000000028756E-06
  1.000000000028756E-06
  1.000000000028756E-06
  1.000000000028756E-06
  1.000000000028756E-06
  1.000000000028756E-06
  1.000000000028756E-06
  1.000000000028756E-06
  1.000000000028756E-06
  1.000000000028756E-06
  1.000000000028756E-06
  1.000000000028756E-06
  1.000000000028756E-06
  1.000000000028756E-06
  1.000000000028756E-06
  1.000000000028756E-06
  1.000000000028756E-06
  1.000000000028756E-06
  1.000000000028756E-06
  1.000000000028756E-06
  1.000000000028756E-06
  1.000000000028756E-06
  1.000000000028756E-06
  1.000000000028756E-06
  1.000000000028756E-06
  1.000000000028756E-06
  1.000000000028756E-06
  1.000000000028756E-06
  1.000000000028756E-06
  1.000000000028756E-06
  1.000000000028756E-06
  1.000000000028756E-06
  1.000000000028756E-06
  1.000000000028756E-06
  1.000000000028756E-06
  1.000000000028756E-06
  1.000000000028756E-06
  1.000000000028756E-06
  1.000000000028756E-06
  1.000000000028756E-06
  1.000000000028756E-06
  1.000000000028756E-06
  1.000000000028756E-06
  1.000000000028756E-06
  1.000000000028756E-06
  1.000000000028756E-06
  1.000000000028756E-06
  1.000000000028756E-06
  1.000000000028756E-06
  1.000000000028756E-06
  1.000000000028756E-06
  1.000000000028756E-06
  1.000000000028756E-06
  1.000000000028756E-06
  1.000000000028756E-06
  1.000000000028756E-06
  1.000000000028756E-06
  1.000000000028756E-06
  1.000000000028756E-06
  1.000000000028756E-06
  1.000000000028756E-06
  1.000000000028756E-06
  1.000000000028756E-06
  1.000000000028756E-06
  1.000000000028756E-06
  1.000000000028756E-06
  1.000000000028756E-06
  1.000000000028756E-06
  1.000000000028756E-06
  1.000000000028756E-06
  1.000000000028756E-06
SCALARS Pressure float
LOOKUP_TABLE default
  1.652769144127025E+02
  1.652624913527436E+02
  1.652480989553061E+02
  1.652337676897859E+02
  1.652194981091975E+02
  1.652052907855012E+02
  1.651911462914210E+02
  1.651770651936705E+02
  1.651630480829217E+02
  1.651490955250735E+02
  1.651352081148536E+02
  1.651213864324894E+02
  1.651076310635947E+02
  1.650939426008192E+02
  1.650803216206357E+02
  1.650667687057552E+02
  1.650532843987227E+02
  1.650398692233061E+02
  1.650265236400534E+02
  1.650132480117808E+02
  1.652769144127025E+02
  1.652624913527436E+02
  1.652480989553061E+02
  1.652337676897859E+02
  1.652194981091975E+02
  1.652052907855012E+02
  1.651911462914210E+02
  1.651770651936705E+02
  1.651630480829217E+02
  1.651490955250735E+02
  1.651352081148536E+02
  1.651213864324894E+02
  1.651076310635947E+02
  1.650939426008192E+02
  1.650803216206357E+02
  1.650667687057552E+02
  1.650532843987227E+02
  1.650398692233061E+02
  1.650265236400534E+02
  1.650132480117808E+02
  1.652769144127025E+02
  1.652624913527436E+02
  1.652480989553061E+02
  1.652337676897859E+02
  1.652194981091975E+02
  1.652052907855012E+02
  1.651911462914210E+02
  1.651770651936705E+02
  1.651630480829217E+02
  1.651490955250735E+02
  1.651352081148536E+02
  1.651213864324894E+02
  1.651076310635947E+02
  1.650939426008192E+02
  1.650803216206357E+02
  1.650667687057552E+02
  1.650532843987227E+02
  1.650398692233061E+02
  1.650265236400534E+02
  1.650132480117808E+02
  1.652769144127025E+02
  1.652624913527436E+02
  1.652480989553061E+02
  1.652337676897859E+02
  1.652194981091975E+02
  1.652052907855012E+02
  1.651911462914210E+02
  1.651770651936705E+02
  1.651630480829217E+02
  1.651490955250735E+02
  1.651352081148536E+02
  1.651213864324894E+02
  1.651076310635947E+02
  1.650939426008192E+02
  1.650803216206357E+02
  1.650667687057552E+02
  1.650532843987227E+02
  1.650398692233061E+02
  1.650265236400534E+02
  1.650132480117808E+02
SCALARS Liquid_Enthalpy float
LOOKUP_TABLE default
  1.298897373374080E+03
  1.308652047813759E+03
  1.318406722460689E+03
  1.328161397309664E+03
  1.337916072345272E+03
  1.347670747518162E+03
  1.357425422643343E+03
  1.367180097015853E+03
  1.376934768132081E+03
  1.386689427912060E+03
  1.396444052695172E+03
  1.406198579263812E+03
  1.415952852498018E+03
  1.425706520667615E+03
  1.435458842496458E+03
  1.445208359270297E+03
  1.454952378546684E+03
  1.464686223003973E+03
  1.474402221376251E+03
  1.484088458690218E+03
  1.298897373374080E+03
  1.308652047813759E+03
  1.318406722460689E+03
  1.328161397309664E+03
  1.337916072345272E+03
  1.347670747518162E+03
  1.357425422643343E+03
  1.367180097015853E+03
  1.376934768132081E+03
  1.386689427912060E+03
  1.396444052695172E+03
  1.406198579263812E+03
  1.415952852498018E+03
  1.425706520667615E+03
  1.435458842496458E+03
  1.445208359270297E+03
  1.454952378546684E+03
  1.464686223003973E+03
  1.474402221376251E+03
  1.484088458690218E+03
  1.298897373374080E+03
  1.308652047813759E+03
  1.318406722460689E+03
  1.328161397309664E+03
  1.337916072345272E+03
  1.347670747518162E+03
  1.357425422643343E+03
  1.367180097015853E+03
  1.376934768132081E+03
  1.386689427912060E+03
  1.396444052695172E+03
  1.406198579263812E+03
  1.415952852498018E+03
  1.425706520667615E+03
  1.435458842496458E+03
  1.445208359270297E+03
  1.454952378546684E+03
  1.464686223003973E+03
  1.474402221376251E+03
  1.484088458690218E+03
  1.298897373374080E+03
  1.308652047813759E+03
  1.318406722460689E+03
  1.328161397309664E+03
  1.337916072345272E+03
  1.347670747518162E+03
  1.357425422643343E+03
  1.367180097015853E+03
  1.376934768132081E+03
  1.386689427912060E+03
  1.396444052695172E+03
  1.406198579263812E+03
  1.415952852498018E+03
  1.425706520667615E+03
  1.435458842496458E+03
  1.445208359270297E+03
  1.454952378546684E+03
  1.464686223003973E+03
  1.474402221376251E+03
  1.484088458690218E+03
SCALARS Vapor_Enthalpy float
LOOKUP_TABLE default
  2.567763299525181E+03
  2.567811842053082E+03
  2.567860273690183E+03
  2.567908491974038E+03
  2.567956495144564E+03
  2.568004281377507E+03
  2.568051848848066E+03
  2.568099195750941E+03
  2.568146320199867E+03
  2.568193220394956E+03
  2.568239894439655E+03
  2.568286340483982E+03
  2.568332556665501E+03
  2.568378541094426E+03
  2.568424291938648E+03
  2.568469807343584E+03
  2.568515085593288E+03
  2.568560125031933E+03
  2.568604924218415E+03
  2.568649482037657E+03
  2.567763299525181E+03
  2.567811842053082E+03
  2.567860273690183E+03
  2.567908491974038E+03
  2.567956495144564E+03
  2.568004281377507E+03
  2.568051848848066E+03
  2.568099195750941E+03
  2.568146320199867E+03
  2.568193220394956E+03
  2.568239894439655E+03
  2.568286340483982E+03
  2.568332556665501E+03
  2.568378541094426E+03
  2.568424291938648E+03
  2.568469807343584E+03
  2.568515085593288E+03
  2.568560125031933E+03
  2.568604924218415E+03
  2.568649482037657E+03
  2.567763299525181E+03
  2.567811842053082E+03
  2.567860273690183E+03
  2.567908491974038E+03
  2.567956495144564E+03
  2.568004281377507E+03
  2.568051848848066E+03
  2.568099195750941E+03
  2.568146320199867E+03
  2.568193220394956E+03
  2.568239894439655E+03
  2.568286340483982E+03
  2.568332556665501E+03
  2.568378541094426E+03
  2.568424291938648E+03
  2.568469807343584E+03
  2.568515085593288E+03
  2.568560125031933E+03
  2.568604924218415E+03
  2.568649482037657E+03
  2.567763299525181E+03
  2.567811842053082E+03
  2.567860273690183E+03
  2.567908491974038E+03
  2.567956495144564E+03
  2.568004281377507E+03
  2.568051848848066E+03
  2.568099195750941E+03
  2.568146320199867E+03
  2.568193220394956E+03
  2.568239894439655E+03
  2.568286340483982E+03
  2.568332556665501E+03
  2.568378541094426E+03
  2.568424291938648E+03
  2.568469807343584E+03
  2.568515085593288E+03
  2.568560125031933E+03
  2.568604924218415E+03
  2.568649482037657E+03
SCALARS Liquid_Density float
LOOKUP_TABLE default
  7.432617898277960E+02
  7.396522563977836E+02
  7.360051719695970E+02
  7.323201007377548E+02
  7.285966129569948E+02
  7.248342912142888E+02
  7.210327312631786E+02
  7.171915429806446E+02
  7.133103517040395E+02
  7.093888005985066E+02
  7.054265556857243E+02
  7.014233168721379E+02
  6.973788414263697E+02
  6.932929908470642E+02
  6.891658179681518E+02
  6.849977170997408E+02
  6.807896645350493E+02
  6.765435756409523E+02
  6.722627959323975E+02
  6.679527262302644E+02
  7.432617898277960E+02
  7.396522563977836E+02
  7.360051719695970E+02
  7.323201007377548E+02
  7.285966129569948E+02
  7.248342912142888E+02
  7.210327312631786E+02
  7.171915429806446E+02
  7.133103517040395E+02
  7.093888005985066E+02
  7.054265556857243E+02
  7.014233168721379E+02
  6.973788414263697E+02
  6.932929908470642E+02
  6.891658179681518E+02
  6.849977170997408E+02
  6.807896645350493E+02
  6.765435756409523E+02
  6.722627959323975E+02
  6.679527262302644E+02
  7.432617898277960E+02
  7.396522563977836E+02
  7.360051719695970E+02
  7.323201007377548E+02
  7.285966129569948E+02
  7.248342912142888E+02
  7.210327312631786E+02
  7.171915429806446E+02
  7.133103517040395E+02
  7.093888005985066E+02
  7.054265556857243E+02
  7.014233168721379E+02
  6.973788414263697E+02
  6.932929908470642E+02
  6.891658179681518E+02
  6.849977170997408E+02
  6.807896645350493E+02
  6.765435756409523E+02
  6.722627959323975E+02
  6.679527262302644E+02
  7.432617898277960E+02
  7.396522563977836E+02
  7.360051719695970E+02
  7.323201007377548E+02
  7.285966129569948E+02
  7.248342912142888E+02
  7.210327312631786E+02
  7.171915429806446E+02
  7.133103517040395E+02
  7.093888005985066E+02
  7.054265556857243E+02
  7.014233168721379E+02
  6.973788414263697E+02
  6.932929908470642E+02
  6.891658179681518E+02
  6.849977170997408E+02
  6.807896645350493E+02
  6.765435756409523E+02
  6.722627959323975E+02
  6.679527262302644E+02
SCALARS Vapor_Density float
LOOKUP_TABLE default
  1.133752417832361E+02
  1.133574768307067E+02
  1.133397531906255E+02
  1.133221083503910E+02
  1.133045429441400E+02
  1.132870576292147E+02
  1.132696530633577E+02
  1.132523298968480E+02
  1.132350888093186E+02
  1.132179304492178E+02
  1.132008555002248E+02
  1.131838646283713E+02
  1.131669585051768E+02
  1.131501378112607E+02
  1.131334032066282E+02
  1.131167553590443E+02
  1.131001948861493E+02
  1.130837223828912E+02
  1.130673383660662E+02
  1.130510432327777E+02
  1.133752417832361E+02
  1.133574768307067E+02
  1.133397531906255E+02
  1.133221083503910E+02
  1.133045429441400E+02
  1.132870576292147E+02
  1.132696530633577E+02
  1.132523298968480E+02
  1.132350888093186E+02
  1.132179304492178E+02
  1.132008555002248E+02
  1.131838646283713E+02
  1.131669585051768E+02
  1.131501378112607E+02
  1.131334032066282E+02
  1.131167553590443E+02
  1.131001948861493E+02
  1.130837223828912E+02
  1.130673383660662E+02
  1.130510432327777E+02
  1.133752417832361E+02
  1.133574768307067E+02
  1.133397531906255E+02
  1.133221083503910E+02
  1.133045429441400E+02
  1.132870576292147E+02
  1.132696530633577E+02
  1.132523298968480E+02
  1.132350888093186E+02
  1.132179304492178E+02
  1.132008555002248E+02
  1.131838646283713E+02
  1.131669585051768E+02
  1.131501378112607E+02
  1.131334032066282E+02
  1.131167553590443E+02
  1.131001948861493E+02
  1.130837223828912E+02
  1.130673383660662E+02
  1.130510432327777E+02
  1.133752417832361E+02
  1.133574768307067E+02
  1.133397531906255E+02
  1.133221083503910E+02
  1.133045429441400E+02
  1.132870576292147E+02
  1.132696530633577E+02
  1.132523298968480E+02
  1.132350888093186E+02
  1.132179304492178E+02
  1.132008555002248E+02
  1.131838646283713E+02
  1.131669585051768E+02
  1.131501378112607E+02
  1.131334032066282E+02
  1.131167553590443E+02
  1.131001948861493E+02
  1.130837223828912E+02
  1.130673383660662E+02
  1.130510432327777E+02
SCALARS Vapor_Generation float
LOOKUP_TABLE default
  0.000000000000000E+00
  0.000000000000000E+00
  0.000000000000000E+00
  0.000000000000000E+00
  0.000000000000000E+00
  0.000000000000000E+00
  0.000000000000000E+00
  0.000000000000000E+00
  0.000000000000000E+00
  0.000000000000000E+00
  0.000000000000000E+00
  0.000000000000000E+00
  0.000000000000000E+00
  0.000000000000000E+00
  0.000000000000000E+00
  0.000000000000000E+00
  0.000000000000000E+00
  0.000000000000000E+00
  0.000000000000000E+00
  0.000000000000000E+00
  0.000000000000000E+00
  0.000000000000000E+00
  0.000000000000000E+00
  0.000000000000000E+00
  0.000000000000000E+00
  0.000000000000000E+00
  0.000000000000000E+00
  0.000000000000000E+00
  0.000000000000000E+00
  0.000000000000000E+00
  0.000000000000000E+00
  0.000000000000000E+00
  0.000000000000000E+00
  0.000000000000000E+00
  0.000000000000000E+00
  0.000000000000000E+00
  0.000000000000000E+00
  0.000000000000000E+00
  0.000000000000000E+00
  0.000000000000000E+00
  0.000000000000000E+00
  0.000000000000000E+00
  0.000000000000000E+00
  0.000000000000000E+00
  0.000000000000000E+00
  0.000000000000000E+00
  0.000000000000000E+00
  0.000000000000000E+00
  0.000000000000000E+00
  0.000000000000000E+00
  0.000000000000000E+00
  0.000000000000000E+00
  0.000000000000000E+00
  0.000000000000000E+00
  0.000000000000000E+00
  0.000000000000000E+00
  0.000000000000000E+00
  0.000000000000000E+00
  0.000000000000000E+00
  0.000000000000000E+00
  0.000000000000000E+00
  0.000000000000000E+00
  0.000000000000000E+00
  0.000000000000000E+00
  0.000000000000000E+00
  0.000000000000000E+00
  0.000000000000000E+00
  0.000000000000000E+00
  0.000000000000000E+00
  0.000000000000000E+00
  0.000000000000000E+00
  0.000000000000000E+00
  0.000000000000000E+00
  0.000000000000000E+00
  0.000000000000000E+00
  0.000000000000000E+00
  0.000000000000000E+00
  0.000000000000000E+00
  0.000000000000000E+00
  0.000000000000000E+00
SCALARS Scalar_Cell_Flow_Area float
LOOKUP_TABLE default
  9.514275000000000E-05
  9.514275000000000E-05
  9.514275000000000E-05
  9.514275000000000E-05
  9.514275000000000E-05
  9.514275000000000E-05
  9.514275000000000E-05
  9.514275000000000E-05
  9.514275000000000E-05
  9.514275000000000E-05
  9.514275000000000E-05
  9.514275000000000E-05
  9.514275000000000E-05
  9.514275000000000E-05
  9.514275000000000E-05
  9.514275000000000E-05
  9.514275000000000E-05
  9.514275000000000E-05
  9.514275000000000E-05
  9.514275000000000E-05
  9.514275000000000E-05
  9.514275000000000E-05
  9.514275000000000E-05
  9.514275000000000E-05
  9.514275000000000E-05
  9.514275000000000E-05
  9.514275000000000E-05
  9.514275000000000E-05
  9.514275000000000E-05
  9.514275000000000E-05
  9.514275000000000E-05
  9.514275000000000E-05
  9.514275000000000E-05
  9.514275000000000E-05
  9.514275000000000E-05
  9.514275000000000E-05
  9.514275000000000E-05
  9.514275000000000E-05
  9.514275000000000E-05
  9.514275000000000E-05
  9.514275000000000E-05
  9.514275000000000E-05
  9.514275000000000E-05
  9.514275000000000E-05
  9.514275000000000E-05
  9.514275000000000E-05
  9.514275000000000E-05
  9.514275000000000E-05
  9.514275000000000E-05
  9.514275000000000E-05
  9.514275000000000E-05
  9.514275000000000E-05
  9.514275000000000E-05
  9.514275000000000E-05
  9.514275000000000E-05
  9.514275000000000E-05
  9.514275000000000E-05
  9.514275000000000E-05
  9.514275000000000E-05
  9.514275000000000E-05
  9.514275000000000E-05
  9.514275000000000E-05
  9.514275000000000E-05
  9.514275000000000E-05
  9.514275000000000E-05
  9.514275000000000E-05
  9.514275000000000E-05
  9.514275000000000E-05
  9.514275000000000E-05
  9.514275000000000E-05
  9.514275000000000E-05
  9.514275000000000E-05
  9.514275000000000E-05
  9.514275000000000E-05
  9.514275000000000E-05
  9.514275000000000E-05
  9.514275000000000E-05
  9.514275000000000E-05
  9.514275000000000E-05
  9.514275000000000E-05
SCALARS Channel_Wetted_Perimeter float
LOOKUP_TABLE default
  2.827433000000000E-02
  2.827433000000000E-02
  2.827433000000000E-02
  2.827433000000000E-02
  2.827433000000000E-02
  2.827433000000000E-02
  2.827433000000000E-02
  2.827433000000000E-02