# vtk DataFile Version 2.0
Scalar Data
ASCII
DATASET UNSTRUCTURED_GRID
POINTS         320 double
 -7.00000000E-03 -7.00000000E-03  0.00000000E+00
  0.00000000E+00 -7.00000000E-03  0.00000000E+00
 -7.00000000E-03  0.00000000E+00  0.00000000E+00
  0.00000000E+00  0.00000000E+00  0.00000000E+00
 -7.00000000E-03 -7.00000000E-03  3.65800000E-01
  0.00000000E+00 -7.00000000E-03  3.65800000E-01
 -7.00000000E-03  0.00000000E+00  3.65800000E-01
  0.00000000E+00  0.00000000E+00  3.65800000E-01
 -7.00000000E-03 -7.00000000E-03  3.65800000E-01
  0.00000000E+00 -7.00000000E-03  3.65800000E-01
 -7.00000000E-03  0.00000000E+00  3.65800000E-01
  0.00000000E+00  0.00000000E+00  3.65800000E-01
 -7.00000000E-03 -7.00000000E-03  7.31600000E-01
  0.00000000E+00 -7.00000000E-03  7.31600000E-01
 -7.00000000E-03  0.00000000E+00  7.31600000E-01
  0.00000000E+00  0.00000000E+00  7.31600000E-01
 -7.00000000E-03 -7.00000000E-03  7.31600000E-01
  0.00000000E+00 -7.00000000E-03  7.31600000E-01
 -7.00000000E-03  0.00000000E+00  7.31600000E-01
  0.00000000E+00  0.00000000E+00  7.31600000E-01
 -7.00000000E-03 -7.00000000E-03  1.09740000E+00
  0.00000000E+00 -7.00000000E-03  1.09740000E+00
 -7.00000000E-03  0.00000000E+00  1.09740000E+00
  0.00000000E+00  0.00000000E+00  1.09740000E+00
 -7.00000000E-03 -7.00000000E-03  1.09740000E+00
  0.00000000E+00 -7.00000000E-03  1.09740000E+00
 -7.00000000E-03  0.00000000E+00  1.09740000E+00
  0.00000000E+00  0.00000000E+00  1.09740000E+00
 -7.00000000E-03 -7.00000000E-03  1.46320000E+00
  0.00000000E+00 -7.00000000E-03  1.46320000E+00
 -7.00000000E-03  0.00000000E+00  1.46320000E+00
  0.00000000E+00  0.00000000E+00  1.46320000E+00
 -7.00000000E-03 -7.00000000E-03  1.46320000E+00
  0.00000000E+00 -7.00000000E-03  1.46320000E+00
 -7.00000000E-03  0.00000000E+00  1.46320000E+00
  0.00000000E+00  0.00000000E+00  1.46320000E+00
 -7.00000000E-03 -7.00000000E-03  1.82900000E+00
  0.00000000E+00 -7.00000000E-03  1.82900000E+00
 -7.00000000E-03  0.00000000E+00  1.82900000E+00
  0.00000000E+00  0.00000000E+00  1.82900000E+00
 -7.00000000E-03 -7.00000000E-03  1.82900000E+00
  0.00000000E+00 -7.00000000E-03  1.82900000E+00
 -7.00000000E-03  0.00000000E+00  1.82900000E+00
  0.00000000E+00  0.00000000E+00  1.82900000E+00
 -7.00000000E-03 -7.00000000E-03  2.19480000E+00
  0.00000000E+00 -7.00000000E-03  2.19480000E+00
 -7.00000000E-03  0.00000000E+00  2.19480000E+00
  0.00000000E+00  0.00000000E+00  2.19480000E+00
 -7.00000000E-03 -7.00000000E-03  2.19480000E+00
  0.00000000E+00 -7.00000000E-03  2.19480000E+00
 -7.00000000E-03  0.00000000E+00  2.19480000E+00
  0.00000000E+00  0.00000000E+00  2.19480000E+00
 -7.00000000E-03 -7.00000000E-03  2.56060000E+00
  0.00000000E+00 -7.00000000E-03  2.56060000E+00
 -7.00000000E-03  0.00000000E+00  2.56060000E+00
  0.00000000E+00  0.00000000E+00  2.56060000E+00
 -7.00000000E-03 -7.00000000E-03  2.56060000E+00
  0.00000000E+00 -7.00000000E-03  2.56060000E+00
 -7.00000000E-03  0.00000000E+00  2.56060000E+00
  0.00000000E+00  0.00000000E+00  2.56060000E+00
 -7.00000000E-03 -7.00000000E-03  2.92640000E+00
  0.00000000E+00 -7.00000000E-03  2.92640000E+00
 -7.00000000E-03  0.00000000E+00  2.92640000E+00
  0.00000000E+00  0.00000000E+00  2.92640000E+00
 -7.00000000E-03 -7.00000000E-03  2.92640000E+00
  0.00000000E+00 -7.00000000E-03  2.92640000E+00
 -7.00000000E-03  0.00000000E+00  2.92640000E+00
  0.00000000E+00  0.00000000E+00  2.92640000E+00
 -7.00000000E-03 -7.00000000E-03  3.29220000E+00
  0.00000000E+00 -7.00000000E-03  3.29220000E+00
 -7.00000000E-03  0.00000000E+00  3.29220000E+00
  0.00000000E+00  0.00000000E+00  3.29220000E+00
 -7.00000000E-03 -7.00000000E-03  3.29220000E+00
  0.00000000E+00 -7.00000000E-03  3.29220000E+00
 -7.00000000E-03  0.00000000E+00  3.29220000E+00
  0.00000000E+00  0.00000000E+00  3.29220000E+00
 -7.00000000E-03 -7.00000000E-03  3.65800000E+00
  0.00000000E+00 -7.00000000E-03  3.65800000E+00
 -7.00000000E-03  0.00000000E+00  3.65800000E+00
  0.00000000E+00  0.00000000E+00  3.65800000E+00
  0.00000000E+00 -7.00000000E-03  0.00000000E+00
  7.00000000E-03 -7.00000000E-03  0.00000000E+00
  0.00000000E+00  0.00000000E+00  0.00000000E+00
  7.00000000E-03  0.00000000E+00  0.00000000E+00
  0.00000000E+00 -7.00000000E-03  3.65800000E-01
  7.00000000E-03 -7.00000000E-03  3.65800000E-01
  0.00000000E+00  0.00000000E+00  3.65800000E-01
  7.00000000E-03  0.00000000E+00  3.65800000E-01
  0.00000000E+00 -7.00000000E-03  3.65800000E-01
  7.00000000E-03 -7.00000000E-03  3.65800000E-01
  0.00000000E+00  0.00000000E+00  3.65800000E-01
  7.00000000E-03  0.00000000E+00  3.65800000E-01
  0.00000000E+00 -7.00000000E-03  7.31600000E-01
  7.00000000E-03 -7.00000000E-03  7.31600000E-01
  0.00000000E+00  0.00000000E+00  7.31600000E-01
  7.00000000E-03  0.00000000E+00  7.31600000E-01
  0.00000000E+00 -7.00000000E-03  7.31600000E-01
  7.00000000E-03 -7.00000000E-03  7.31600000E-01
  0.00000000E+00  0.00000000E+00  7.31600000E-01
  7.00000000E-03  0.00000000E+00  7.31600000E-01
  0.00000000E+00 -7.00000000E-03  1.09740000E+00
  7.00000000E-03 -7.00000000E-03  1.09740000E+00
  0.00000000E+00  0.00000000E+00  1.09740000E+00
  7.00000000E-03  0.00000000E+00  1.09740000E+00
  0.00000000E+00 -7.00000000E-03  1.09740000E+00
  7.00000000E-03 -7.00000000E-03  1.09740000E+00
  0.00000000E+00  0.00000000E+00  1.09740000E+00
  7.00000000E-03  0.00000000E+00  1.09740000E+00
  0.00000000E+00 -7.00000000E-03  1.46320000E+00
  7.00000000E-03 -7.00000000E-03  1.46320000E+00
  0.00000000E+00  0.00000000E+00  1.46320000E+00
  7.00000000E-03  0.00000000E+00  1.46320000E+00
  0.00000000E+00 -7.00000000E-03  1.46320000E+00
  7.00000000E-03 -7.00000000E-03  1.46320000E+00
  0.00000000E+00  0.00000000E+00  1.46320000E+00
  7.00000000E-03  0.00000000E+00  1.46320000E+00
  0.00000000E+00 -7.00000000E-03  1.82900000E+00
  7.00000000E-03 -7.00000000E-03  1.82900000E+00
  0.00000000E+00  0.00000000E+00  1.82900000E+00
  7.00000000E-03  0.00000000E+00  1.82900000E+00
  0.00000000E+00 -7.00000000E-03  1.82900000E+00
  7.00000000E-03 -7.00000000E-03  1.82900000E+00
  0.00000000E+00  0.00000000E+00  1.82900000E+00
  7.00000000E-03  0.00000000E+00  1.82900000E+00
  0.00000000E+00 -7.00000000E-03  2.19480000E+00
  7.00000000E-03 -7.00000000E-03  2.19480000E+00
  0.00000000E+00  0.00000000E+00  2.19480000E+00
  7.00000000E-03  0.00000000E+00  2.19480000E+00
  0.00000000E+00 -7.00000000E-03  2.19480000E+00
  7.00000000E-03 -7.00000000E-03  2.19480000E+00
  0.00000000E+00  0.00000000E+00  2.19480000E+00
  7.00000000E-03  0.00000000E+00  2.19480000E+00
  0.00000000E+00 -7.00000000E-03  2.56060000E+00
  7.00000000E-03 -7.00000000E-03  2.56060000E+00
  0.00000000E+00  0.00000000E+00  2.56060000E+00
  7.00000000E-03  0.00000000E+00  2.56060000E+00
  0.00000000E+00 -7.00000000E-03  2.56060000E+00
  7.00000000E-03 -7.00000000E-03  2.56060000E+00
  0.00000000E+00  0.00000000E+00  2.56060000E+00
  7.00000000E-03  0.00000000E+00  2.56060000E+00
  0.00000000E+00 -7.00000000E-03  2.92640000E+00
  7.00000000E-03 -7.00000000E-03  2.92640000E+00
  0.00000000E+00  0.00000000E+00  2.92640000E+00
  7.00000000E-03  0.00000000E+00  2.92640000E+00
  0.00000000E+00 -7.00000000E-03  2.92640000E+00
  7.00000000E-03 -7.00000000E-03  2.92640000E+00
  0.00000000E+00  0.00000000E+00  2.92640000E+00
  7.00000000E-03  0.00000000E+00  2.92640000E+00
  0.00000000E+00 -7.00000000E-03  3.29220000E+00
  7.00000000E-03 -7.00000000E-03  3.29220000E+00
  0.00000000E+00  0.00000000E+00  3.29220000E+00
  7.00000000E-03  0.00000000E+00  3.29220000E+00
  0.00000000E+00 -7.00000000E-03  3.29220000E+00
  7.00000000E-03 -7.00000000E-03  3.29220000E+00
  0.00000000E+00  0.00000000E+00  3.29220000E+00
  7.00000000E-03  0.00000000E+00  3.29220000E+00
  0.00000000E+00 -7.00000000E-03  3.65800000E+00
  7.00000000E-03 -7.00000000E-03  3.65800000E+00
  0.00000000E+00  0.00000000E+00  3.65800000E+00
  7.00000000E-03  0.00000000E+00  3.65800000E+00
 -7.00000000E-03  0.00000000E+00  0.00000000E+00
  0.00000000E+00  0.00000000E+00  0.00000000E+00
 -7.00000000E-03  7.00000000E-03  0.00000000E+00
  0.00000000E+00  7.00000000E-03  0.00000000E+00
 -7.00000000E-03  0.00000000E+00  3.65800000E-01
  0.00000000E+00  0.00000000E+00  3.65800000E-01
 -7.00000000E-03  7.00000000E-03  3.65800000E-01
  0.00000000E+00  7.00000000E-03  3.65800000E-01
 -7.00000000E-03  0.00000000E+00  3.65800000E-01
  0.00000000E+00  0.00000000E+00  3.65800000E-01
 -7.00000000E-03  7.00000000E-03  3.65800000E-01
  0.00000000E+00  7.00000000E-03  3.65800000E-01
 -7.00000000E-03  0.00000000E+00  7.31600000E-01
  0.00000000E+00  0.00000000E+00  7.31600000E-01
 -7.00000000E-03  7.00000000E-03  7.31600000E-01
  0.00000000E+00  7.00000000E-03  7.31600000E-01
 -7.00000000E-03  0.00000000E+00  7.31600000E-01
  0.00000000E+00  0.00000000E+00  7.31600000E-01
 -7.00000000E-03  7.00000000E-03  7.31600000E-01
  0.00000000E+00  7.00000000E-03  7.31600000E-01
 -7.00000000E-03  0.00000000E+00  1.09740000E+00
  0.00000000E+00  0.00000000E+00  1.09740000E+00
 -7.00000000E-03  7.00000000E-03  1.09740000E+00
  0.00000000E+00  7.00000000E-03  1.09740000E+00
 -7.00000000E-03  0.00000000E+00  1.09740000E+00
  0.00000000E+00  0.00000000E+00  1.09740000E+00
 -7.00000000E-03  7.00000000E-03  1.09740000E+00
  0.00000000E+00  7.00000000E-03  1.09740000E+00
 -7.00000000E-03  0.00000000E+00  1.46320000E+00
  0.00000000E+00  0.00000000E+00  1.46320000E+00
 -7.00000000E-03  7.00000000E-03  1.46320000E+00
  0.00000000E+00  7.00000000E-03  1.46320000E+00
 -7.00000000E-03  0.00000000E+00  1.46320000E+00
  0.00000000E+00  0.00000000E+00  1.46320000E+00
 -7.00000000E-03  7.00000000E-03  1.46320000E+00
  0.00000000E+00  7.00000000E-03  1.46320000E+00
 -7.00000000E-03  0.00000000E+00  1.82900000E+00
  0.00000000E+00  0.00000000E+00  1.82900000E+00
 -7.00000000E-03  7.00000000E-03  1.82900000E+00
  0.00000000E+00  7.00000000E-03  1.82900000E+00
 -7.00000000E-03  0.00000000E+00  1.82900000E+00
  0.00000000E+00  0.00000000E+00  1.82900000E+00
 -7.00000000E-03  7.00000000E-03  1.82900000E+00
  0.00000000E+00  7.00000000E-03  1.82900000E+00
 -7.00000000E-03  0.00000000E+00  2.19480000E+00
  0.00000000E+00  0.00000000E+00  2.19480000E+00
 -7.00000000E-03  7.00000000E-03  2.19480000E+00
  0.00000000E+00  7.00000000E-03  2.19480000E+00
 -7.00000000E-03  0.00000000E+00  2.19480000E+00
  0.00000000E+00  0.00000000E+00  2.19480000E+00
 -7.00000000E-03  7.00000000E-03  2.19480000E+00
  0.00000000E+00  7.00000000E-03  2.19480000E+00
 -7.00000000E-03  0.00000000E+00  2.56060000E+00
  0.00000000E+00  0.00000000E+00  2.56060000E+00
 -7.00000000E-03  7.00000000E-03  2.56060000E+00
  0.00000000E+00  7.00000000E-03  2.56060000E+00
 -7.00000000E-03  0.00000000E+00  2.56060000E+00
  0.00000000E+00  0.00000000E+00  2.56060000E+00
 -7.00000000E-03  7.00000000E-03  2.56060000E+00
  0.00000000E+00  7.00000000E-03  2.56060000E+00
 -7.00000000E-03  0.00000000E+00  2.92640000E+00
  0.00000000E+00  0.00000000E+00  2.92640000E+00
 -7.00000000E-03  7.00000000E-03  2.92640000E+00
  0.00000000E+00  7.00000000E-03  2.92640000E+00
 -7.00000000E-03  0.00000000E+00  2.92640000E+00
  0.00000000E+00  0.00000000E+00  2.92640000E+00
 -7.00000000E-03  7.00000000E-03  2.92640000E+00
  0.00000000E+00  7.00000000E-03  2.92640000E+00
 -7.00000000E-03  0.00000000E+00  3.29220000E+00
  0.00000000E+00  0.00000000E+00  3.29220000E+00
 -7.00000000E-03  7.00000000E-03  3.29220000E+00
  0.00000000E+00  7.00000000E-03  3.29220000E+00
 -7.00000000E-03  0.00000000E+00  3.29220000E+00
  0.00000000E+00  0.00000000E+00  3.29220000E+00
 -7.00000000E-03  7.00000000E-03  3.29220000E+00
  0.00000000E+00  7.00000000E-03  3.29220000E+00
 -7.00000000E-03  0.00000000E+00  3.65800000E+00
  0.00000000E+00  0.00000000E+00  3.65800000E+00
 -7.00000000E-03  7.00000000E-03  3.65800000E+00
  0.00000000E+00  7.00000000E-03  3.65800000E+00
  0.00000000E+00  0.00000000E+00  0.00000000E+00
  7.00000000E-03  0.00000000E+00  0.00000000E+00
  0.00000000E+00  7.00000000E-03  0.00000000E+00
  7.00000000E-03  7.00000000E-03  0.00000000E+00
  0.00000000E+00  0.00000000E+00  3.65800000E-01
  7.00000000E-03  0.00000000E+00  3.65800000E-01
  0.00000000E+00  7.00000000E-03  3.65800000E-01
  7.00000000E-03  7.00000000E-03  3.65800000E-01
  0.00000000E+00  0.00000000E+00  3.65800000E-01
  7.00000000E-03  0.00000000E+00  3.65800000E-01
  0.00000000E+00  7.00000000E-03  3.65800000E-01
  7.00000000E-03  7.00000000E-03  3.65800000E-01
  0.00000000E+00  0.00000000E+00  7.31600000E-01
  7.00000000E-03  0.00000000E+00  7.31600000E-01
  0.00000000E+00  7.00000000E-03  7.31600000E-01
  7.00000000E-03  7.00000000E-03  7.31600000E-01
  0.00000000E+00  0.00000000E+00  7.31600000E-01
  7.00000000E-03  0.00000000E+00  7.31600000E-01
  0.00000000E+00  7.00000000E-03  7.31600000E-01
  7.00000000E-03  7.00000000E-03  7.31600000E-01
  0.00000000E+00  0.00000000E+00  1.09740000E+00
  7.00000000E-03  0.00000000E+00  1.09740000E+00
  0.00000000E+00  7.00000000E-03  1.09740000E+00
  7.00000000E-03  7.00000000E-03  1.09740000E+00
  0.00000000E+00  0.00000000E+00  1.09740000E+00
  7.00000000E-03  0.00000000E+00  1.09740000E+00
  0.00000000E+00  7.00000000E-03  1.09740000E+00
  7.00000000E-03  7.00000000E-03  1.09740000E+00
  0.00000000E+00  0.00000000E+00  1.46320000E+00
  7.00000000E-03  0.00000000E+00  1.46320000E+00
  0.00000000E+00  7.00000000E-03  1.46320000E+00
  7.00000000E-03  7.00000000E-03  1.46320000E+00
  0.00000000E+00  0.00000000E+00  1.46320000E+00
  7.00000000E-03  0.00000000E+00  1.46320000E+00
  0.00000000E+00  7.00000000E-03  1.46320000E+00
  7.00000000E-03  7.00000000E-03  1.46320000E+00
  0.00000000E+00  0.00000000E+00  1.82900000E+00
  7.00000000E-03  0.00000000E+00  1.82900000E+00
  0.00000000E+00  7.00000000E-03  1.82900000E+00
  7.00000000E-03  7.00000000E-03  1.82900000E+00
  0.00000000E+00  0.00000000E+00  1.82900000E+00
  7.00000000E-03  0.00000000E+00  1.82900000E+00
  0.00000000E+00  7.00000000E-03  1.82900000E+00
  7.00000000E-03  7.00000000E-03  1.82900000E+00
  0.00000000E+00  0.00000000E+00  2.19480000E+00
  7.00000000E-03  0.00000000E+00  2.19480000E+00
  0.00000000E+00  7.00000000E-03  2.19480000E+00
  7.00000000E-03  7.00000000E-03  2.19480000E+00
  0.00000000E+00  0.00000000E+00  2.19480000E+00
  7.00000000E-03  0.00000000E+00  2.19480000E+00
  0.00000000E+00  7.00000000E-03  2.19480000E+00
  7.00000000E-03  7.00000000E-03  2.19480000E+00
  0.00000000E+00  0.00000000E+00  2.56060000E+00
  7.00000000E-03  0.00000000E+00  2.56060000E+00
  0.00000000E+00  7.00000000E-03  2.56060000E+00
  7.00000000E-03  7.00000000E-03  2.56060000E+00
  0.00000000E+00  0.00000000E+00  2.56060000E+00
  7.00000000E-03  0.00000000E+00  2.56060000E+00
  0.00000000E+00  7.00000000E-03  2.56060000E+00
  7.00000000E-03  7.00000000E-03  2.56060000E+00
  0.00000000E+00  0.00000000E+00  2.92640000E+00
  7.00000000E-03  0.00000000E+00  2.92640000E+00
  0.00000000E+00  7.00000000E-03  2.92640000E+00
  7.00000000E-03  7.00000000E-03  2.92640000E+00
  0.00000000E+00  0.00000000E+00  2.92640000E+00
  7.00000000E-03  0.00000000E+00  2.92640000E+00
  0.00000000E+00  7.00000000E-03  2.92640000E+00
  7.00000000E-03  7.00000000E-03  2.92640000E+00
  0.00000000E+00  0.00000000E+00  3.29220000E+00
  7.00000000E-03  0.00000000E+00  3.29220000E+00
  0.00000000E+00  7.00000000E-03  3.29220000E+00
  7.00000000E-03  7.00000000E-03  3.29220000E+00
  0.00000000E+00  0.00000000E+00  3.29220000E+00
  7.00000000E-03  0.00000000E+00  3.29220000E+00
  0.00000000E+00  7.00000000E-03  3.29220000E+00
  7.00000000E-03  7.00000000E-03  3.29220000E+00
  0.00000000E+00  0.00000000E+00  3.65800000E+00
  7.00000000E-03  0.00000000E+00  3.65800000E+00
  0.00000000E+00  7.00000000E-03  3.65800000E+00
  7.00000000E-03  7.00000000E-03  3.65800000E+00
CELLS        40       360
         8         0         1         2         3         4         5         6         7
         8         8         9        10        11        12        13        14        15
         8        16        17        18        19        20        21        22        23
         8        24        25        26        27        28        29        30        31
         8        32        33        34        35        36        37        38        39
         8        40        41        42        43        44        45        46        47
         8        48        49        50        51        52        53        54        55
         8        56        57        58        59        60        61        62        63
         8        64        65        66        67        68        69        70        71
         8        72        73        74        75        76        77        78        79
         8        80        81        82        83        84        85        86        87
         8        88        89        90        91        92        93        94        95
         8        96        97        98        99       100       101       102       103
         8       104       105       106       107       108       109       110       111
         8       112       113       114       115       116       117       118       119
         8       120       121       122       123       124       125       126       127
         8       128       129       130       131       132       133       134       135
         8       136       137       138       139       140       141       142       143
         8       144       145       146       147       148       149       150       151
         8       152       153       154       155       156       157       158       159
         8       160       161       162       163       164       165       166       167
         8       168       169       170       171       172       173       174       175
         8       176       177       178       179       180       181       182       183
         8       184       185       186       187       188       189       190       191
         8       192       193       194       195       196       197       198       199
         8       200       201       202       203       204       205       206       207
         8       208       209       210       211       212       213       214       215
         8       216       217       218       219       220       221       222       223
         8       224       225       226       227       228       229       230       231
         8       232       233       234       235       236       237       238       239
         8       240       241       242       243       244       245       246       247
         8       248       249       250       251       252       253       254       255
         8       256       257       258       259       260       261       262       263
         8       264       265       266       267       268       269       270       271
         8       272       273       274       275       276       277       278       279
         8       280       281       282       283       284       285       286       287
         8       288       289       290       291       292       293       294       295
         8       296       297       298       299       300       301       302       303
         8       304       305       306       307       308       309       310       311
         8       312       313       314       315       316       317       318       319
CELL_TYPES      40
11
11
11
11
11
11
11
11
11
11
11
11
11
11
11
11
11
11
11
11
11
11
11
11
11
11
11
11
11
11
11
11
11
11
11
11
11
11
11
11
CELL_DATA      40
SCALARS Liquid_Volume_Fraction float
LOOKUP_TABLE default
  1.000000000000000E+00
  1.000000000000000E+00
  1.000000000000000E+00
  1.000000000000000E+00
  1.000000000000000E+00
  1.000000000000000E+00
  1.000000000000000E+00
  1.000000000000000E+00
  1.000000000000000E+00
  1.000000000000000E+00
  1.000000000000000E+00
  1.000000000000000E+00
  1.000000000000000E+00
  1.000000000000000E+00
  1.000000000000000E+00
  1.000000000000000E+00
  1.000000000000000E+00
  1.000000000000000E+00
  1.000000000000000E+00
  1.000000000000000E+00
  1.000000000000000E+00
  1.000000000000000E+00
  1.000000000000000E+00
  1.000000000000000E+00
  1.000000000000000E+00
  1.000000000000000E+00
  1.000000000000000E+00
  1.000000000000000E+00
  1.000000000000000E+00
  1.000000000000000E+00
  1.000000000000000E+00
  1.000000000000000E+00
  1.000000000000000E+00
  1.000000000000000E+00
  1.000000000000000E+00
  1.000000000000000E+00
  1.000000000000000E+00
  1.000000000000000E+00
  1.000000000000000E+00
  1.000000000000000E+00
SCALARS Entrained_Volume_Fraction float
LOOKUP_TABLE default
  0.000000000000000E+00
  0.000000000000000E+00
  0.000000000000000E+00
  0.000000000000000E+00
  0.000000000000000E+00
  0.000000000000000E+00
  0.000000000000000E+00
  0.000000000000000E+00
  0.000000000000000E+00
  0.000000000000000E+00
  0.000000000000000E+00
  0.000000000000000E+00
  0.000000000000000E+00
  0.000000000000000E+00
  0.000000000000000E+00
  0.000000000000000E+00
  0.000000000000000E+00
  0.000000000000000E+00
  0.000000000000000E+00
  0.000000000000000E+00
  0.000000000000000E+00
  0.000000000000000E+00
  0.000000000000000E+00
  0.000000000000000E+00
  0.000000000000000E+00
  0.000000000000000E+00
  0.000000000000000E+00
  0.000000000000000E+00
  0.000000000000000E+00
  0.000000000000000E+00
  0.000000000000000E+00
  0.000000000000000E+00
  0.000000000000000E+00
  0.000000000000000E+00
  0.000000000000000E+00
  0.000000000000000E+00
  0.000000000000000E+00
  0.000000000000000E+00
  0.000000000000000E+00
  0.000000000000000E+00
SCALARS Vapor_Volume_Fraction float
LOOKUP_TABLE default
  0.000000000000000E+00
  0.000000000000000E+00
  0.000000000000000E+00
  0.000000000000000E+00
  0.000000000000000E+00
  0.000000000000000E+00
  0.000000000000000E+00
  0.000000000000000E+00
  0.000000000000000E+00
  0.000000000000000E+00
  0.000000000000000E+00
  0.000000000000000E+00
  0.000000000000000E+00
  0.000000000000000E+00
  0.000000000000000E+00
  0.000000000000000E+00
  0.000000000000000E+00
  0.000000000000000E+00
  0.000000000000000E+00
  0.000000000000000E+00
  0.000000000000000E+00
  0.000000000000000E+00
  0.000000000000000E+00
  0.000000000000000E+00
  0.000000000000000E+00
  0.000000000000000E+00
  0.000000000000000E+00
  0.000000000000000E+00
  0.000000000000000E+00
  0.000000000000000E+00
  0.000000000000000E+00
  0.000000000000000E+00
  0.000000000000000E+00
  0.000000000000000E+00
  0.000000000000000E+00
  0.000000000000000E+00
  0.000000000000000E+00
  0.000000000000000E+00
  0.000000000000000E+00
  0.000000000000000E+00
SCALARS Pressure float
LOOKUP_TABLE default
  1.652678296573330E+02
  1.652409747697600E+02
  1.652141358081125E+02
  1.651873127953977E+02
  1.651605057520931E+02
  1.651337146987034E+02
  1.651069396557595E+02
  1.650801806438195E+02
  1.650534376834679E+02
  1.650267107953156E+02
  1.652678296573330E+02
  1.652409747697600E+02
  1.652141358081125E+02
  1.651873127953977E+02
  1.651605057520931E+02
  1.651337146987034E+02
  1.651069396557595E+02
  1.650801806438195E+02
  1.650534376834679E+02
  1.650267107953156E+02
  1.652678296573330E+02
  1.652409747697600E+02
  1.652141358081125E+02
  1.651873127953977E+02
  1.651605057520931E+02
  1.651337146987034E+02
  1.651069396557595E+02
  1.650801806438195E+02
  1.650534376834679E+02
  1.650267107953156E+02
  1.652678296573330E+02
  1.652409747697600E+02
  1.652141358081125E+02
  1.651873127953977E+02
  1.651605057520931E+02
  1.651337146987034E+02
  1.651069396557595E+02
  1.650801806438195E+02
  1.650534376834679E+02
  1.650267107953156E+02
SCALARS Liquid_Enthalpy float
LOOKUP_TABLE default
  1.290362032475846E+03
  1.291581365809179E+03
  1.292800699142513E+03
  1.294020032475846E+03
  1.295239365809180E+03
  1.296458699142514E+03
  1.297678032475847E+03
  1.298897365809180E+03
  1.300116699142514E+03
  1.301336032475847E+03
  1.290362032475846E+03
  1.291581365809179E+03
  1.292800699142513E+03
  1.294020032475846E+03
  1.295239365809180E+03
  1.296458699142514E+03
  1.297678032475847E+03
  1.298897365809180E+03
  1.300116699142514E+03
  1.301336032475847E+03
  1.290362032475846E+03
  1.291581365809179E+03
  1.292800699142513E+03
  1.294020032475846E+03
  1.295239365809180E+03
  1.296458699142514E+03
  1.297678032475847E+03
  1.298897365809180E+03
  1.300116699142514E+03
  1.301336032475847E+03
  1.290362032475846E+03
  1.291581365809179E+03
  1.292800699142513E+03
  1.294020032475846E+03
  1.295239365809180E+03
  1.296458699142514E+03
  1.297678032475847E+03
  1.298897365809180E+03
  1.300116699142514E+03
  1.301336032475847E+03
SCALARS Vapor_Enthalpy float
LOOKUP_TABLE default
  2.568693940284235E+03
  2.568693940284235E+03
  2.568693940284235E+03
  2.568693940284235E+03
  2.568693940284235E+03
  2.568693940284235E+03
  2.568693940284235E+03
  2.568693940284235E+03
  2.568693940284235E+03
  2.568693940284235E+03
  2.568693940284235E+03
  2.568693940284235E+03
  2.568693940284235E+03
  2.568693940284235E+03
  2.568693940284235E+03
  2.568693940284235E+03
  2.568693940284235E+03
  2.568693940284235E+03
  2.568693940284235E+03
  2.568693940284235E+03
  2.568693940284235E+03
  2.568693940284235E+03
  2.568693940284235E+03
  2.568693940284235E+03
  2.568693940284235E+03
  2.568693940284235E+03
  2.568693940284235E+03
  2.568693940284235E+03
  2.568693940284235E+03
  2.568693940284235E+03
  2.568693940284235E+03
  2.568693940284235E+03
  2.568693940284235E+03
  2.568693940284235E+03
  2.568693940284235E+03
  2.568693940284235E+03
  2.568693940284235E+03
  2.568693940284235E+03
  2.568693940284235E+03
  2.568693940284235E+03
SCALARS Liquid_Density float
LOOKUP_TABLE default
  7.463857678348006E+02
  7.459361229019313E+02
  7.454858883064721E+02
  7.450350632260455E+02
  7.445836468409867E+02
  7.441316383348259E+02
  7.436790368943117E+02
  7.432258417094301E+02
  7.427720519734297E+02
  7.423176668828438E+02
  7.463857678348006E+02
  7.459361229019313E+02
  7.454858883064721E+02
  7.450350632260455E+02
  7.445836468409867E+02
  7.441316383348259E+02
  7.436790368943117E+02
  7.432258417094301E+02
  7.427720519734297E+02
  7.423176668828438E+02
  7.463857678348006E+02
  7.459361229019313E+02
  7.454858883064721E+02
  7.450350632260455E+02
  7.445836468409867E+02
  7.441316383348259E+02
  7.436790368943117E+02
  7.432258417094301E+02
  7.427720519734297E+02
  7.423176668828438E+02
  7.463857678348006E+02
  7.459361229019313E+02
  7.454858883064721E+02
  7.450350632260455E+02
  7.445836468409867E+02
  7.441316383348259E+02
  7.436790368943117E+02
  7.432258417094301E+02
  7.427720519734297E+02
  7.423176668828438E+02
SCALARS Vapor_Density float
LOOKUP_TABLE default
  1.132113675582275E+02
  1.131937115302370E+02
  1.131760550095361E+02
  1.131583979962447E+02
  1.131407404904829E+02
  1.131230824923709E+02
  1.131054240020287E+02
  1.130877650195765E+02
  1.130701055451343E+02
  1.130524455788223E+02
  1.132113675582275E+02
  1.131937115302370E+02
  1.131760550095361E+02
  1.131583979962447E+02
  1.131407404904829E+02
  1.131230824923709E+02
  1.131054240020287E+02
  1.130877650195765E+02
  1.130701055451343E+02
  1.130524455788223E+02
  1.132113675582275E+02
  1.131937115302370E+02
  1.131760550095361E+02
  1.131583979962447E+02
  1.131407404904829E+02
  1.131230824923709E+02
  1.131054240020287E+02
  1.130877650195765E+02
  1.130701055451343E+02
  1.130524455788223E+02
  1.132113675582275E+02
  1.131937115302370E+02
  1.131760550095361E+02
  1.131583979962447E+02
  1.131407404904829E+02
  1.131230824923709E+02
  1.131054240020287E+02
  1.130877650195765E+02
  1.130701055451343E+02
  1.130524455788223E+02
SCALARS Vapor_Generation float
LOOKUP_TABLE default
  0.000000000000000E+00
  0.000000000000000E+00
  0.000000000000000E+00
  0.000000000000000E+00
  0.000000000000000E+00
  0.000000000000000E+00
  0.000000000000000E+00
  0.000000000000000E+00
  0.000000000000000E+00
  0.000000000000000E+00
  0.000000000000000E+00
  0.000000000000000E+00
  0.000000000000000E+00
  0.000000000000000E+00
  0.000000000000000E+00
  0.000000000000000E+00
  0.000000000000000E+00
  0.000000000000000E+00
  0.000000000000000E+00
  0.000000000000000E+00
  0.000000000000000E+00
  0.000000000000000E+00
  0.000000000000000E+00
  0.000000000000000E+00
  0.000000000000000E+00
  0.000000000000000E+00
  0.000000000000000E+00
  0.000000000000000E+00
  0.000000000000000E+00
  0.000000000000000E+00
  0.000000000000000E+00
  0.000000000000000E+00
  0.000000000000000E+00
  0.000000000000000E+00
  0.000000000000000E+00
  0.000000000000000E+00
  0.000000000000000E+00
  0.000000000000000E+00
  0.000000000000000E+00
  0.000000000000000E+00
SCALARS Scalar_Cell_Flow_Area float
LOOKUP_TABLE default
  9.514275000000000E-05
  9.514275000000000E-05
  9.514275000000000E-05
  9.514275000000000E-05
  9.514275000000000E-05
  9.514275000000000E-05
  9.514275000000000E-05
  9.514275000000000E-05
  9.514275000000000E-05
  9.514275000000000E-05
  9.514275000000000E-05
  9.514275000000000E-05
  9.514275000000000E-05
  9.514275000000000E-05
  9.514275000000000E-05
  9.514275000000000E-05
  9.514275000000000E-05
  9.514275000000000E-05
  9.514275000000000E-05
  9.514275000000000E-05
  9.514275000000000E-05
  9.514275000000000E-05
  9.514275000000000E-05
  9.514275000000000E-05
  9.514275000000000E-05
  9.514275000000000E-05
  9.514275000000000E-05
  9.514275000000000E-05
  9.514275000000000E-05
  9.514275000000000E-05
  9.514275000000000E-05
  9.514275000000000E-05
  9.514275000000000E-05
  9.514275000000000E-05
  9.514275000000000E-05
  9.514275000000000E-05
  9.514275000000000E-05
  9.514275000000000E-05
  9.514275000000000E-05
  9.514275000000000E-05
SCALARS Channel_Wetted_Perimeter float
LOOKUP_TABLE default
  2.827433000000000E-02
  2.827433000000000E-02
  2.827433000000000E-02
  2.827433000000000E-02
  2.827433000000000E-02
  2.827433000000000E-02
  2.827433000000000E-02
  2.827433000000000E-02