# vtk DataFile Version 2.0
Rod Data
ASCII
DATASET UNSTRUCTURED_GRID
POINTS          96 double
 -2.37500000E-03  4.62500000E-03  0.00000000E+00
  2.37500000E-03  4.62500000E-03  0.00000000E+00
 -2.37500000E-03  9.37500000E-03  0.00000000E+00
  2.37500000E-03  9.37500000E-03  0.00000000E+00
 -2.37500000E-03  4.62500000E-03  9.14500000E-02
  2.37500000E-03  4.62500000E-03  9.14500000E-02
 -2.37500000E-03  9.37500000E-03  9.14500000E-02
  2.37500000E-03  9.37500000E-03  9.14500000E-02
 -2.37500000E-03  4.62500000E-03  9.14500000E-02
  2.37500000E-03  4.62500000E-03  9.14500000E-02
 -2.37500000E-03  9.37500000E-03  9.14500000E-02
  2.37500000E-03  9.37500000E-03  9.14500000E-02
 -2.37500000E-03  4.62500000E-03  3.65800000E-01
  2.37500000E-03  4.62500000E-03  3.65800000E-01
 -2.37500000E-03  9.37500000E-03  3.65800000E-01
  2.37500000E-03  9.37500000E-03  3.65800000E-01
 -2.37500000E-03  4.62500000E-03  3.65800000E-01
  2.37500000E-03  4.62500000E-03  3.65800000E-01
 -2.37500000E-03  9.37500000E-03  3.65800000E-01
  2.37500000E-03  9.37500000E-03  3.65800000E-01
 -2.37500000E-03  4.62500000E-03  7.31600000E-01
  2.37500000E-03  4.62500000E-03  7.31600000E-01
 -2.37500000E-03  9.37500000E-03  7.31600000E-01
  2.37500000E-03  9.37500000E-03  7.31600000E-01
 -2.37500000E-03  4.62500000E-03  7.31600000E-01
  2.37500000E-03  4.62500000E-03  7.31600000E-01
 -2.37500000E-03  9.37500000E-03  7.31600000E-01
  2.37500000E-03  9.37500000E-03  7.31600000E-01
 -2.37500000E-03  4.62500000E-03  1.09740000E+00
  2.37500000E-03  4.62500000E-03  1.09740000E+00
 -2.37500000E-03  9.37500000E-03  1.09740000E+00
  2.37500000E-03  9.37500000E-03  1.09740000E+00
 -2.37500000E-03  4.62500000E-03  1.09740000E+00
  2.37500000E-03  4.62500000E-03  1.09740000E+00
 -2.37500000E-03  9.37500000E-03  1.09740000E+00
  2.37500000E-03  9.37500000E-03  1.09740000E+00
 -2.37500000E-03  4.62500000E-03  1.46320000E+00
  2.37500000E-03  4.62500000E-03  1.46320000E+00
 -2.37500000E-03  9.37500000E-03  1.46320000E+00
  2.37500000E-03  9.37500000E-03  1.46320000E+00
 -2.37500000E-03  4.62500000E-03  1.46320000E+00
  2.37500000E-03  4.62500000E-03  1.46320000E+00
 -2.37500000E-03  9.37500000E-03  1.46320000E+00
  2.37500000E-03  9.37500000E-03  1.46320000E+00
 -2.37500000E-03  4.62500000E-03  1.82900000E+00
  2.37500000E-03  4.62500000E-03  1.82900000E+00
 -2.37500000E-03  9.37500000E-03  1.82900000E+00
  2.37500000E-03  9.37500000E-03  1.82900000E+00
 -2.37500000E-03  4.62500000E-03  1.82900000E+00
  2.37500000E-03  4.62500000E-03  1.82900000E+00
 -2.37500000E-03  9.37500000E-03  1.82900000E+00
  2.37500000E-03  9.37500000E-03  1.82900000E+00
 -2.37500000E-03  4.62500000E-03  2.19480000E+00
  2.37500000E-03  4.62500000E-03  2.19480000E+00
 -2.37500000E-03  9.37500000E-03  2.19480000E+00
  2.37500000E-03  9.37500000E-03  2.19480000E+00
 -2.37500000E-03  4.62500000E-03  2.19480000E+00
  2.37500000E-03  4.62500000E-03  2.19480000E+00
 -2.37500000E-03  9.37500000E-03  2.19480000E+00
  2.37500000E-03  9.37500000E-03  2.19480000E+00
 -2.37500000E-03  4.62500000E-03  2.56060000E+00
  2.37500000E-03  4.62500000E-03  2.56060000E+00
 -2.37500000E-03  9.37500000E-03  2.56060000E+00
  2.37500000E-03  9.37500000E-03  2.56060000E+00
 -2.37500000E-03  4.62500000E-03  2.56060000E+00
  2.37500000E-03  4.62500000E-03  2.56060000E+00
 -2.37500000E-03  9.37500000E-03  2.56060000E+00
  2.37500000E-03  9.37500000E-03  2.56060000E+00
 -2.37500000E-03  4.62500000E-03  2.92640000E+00
  2.37500000E-03  4.62500000E-03  2.92640000E+00
 -2.37500000E-03  9.37500000E-03  2.92640000E+00
  2.37500000E-03  9.37500000E-03  2.92640000E+00
 -2.37500000E-03  4.62500000E-03  2.92640000E+00
  2.37500000E-03  4.62500000E-03  2.92640000E+00
 -2.37500000E-03  9.37500000E-03  2.92640000E+00
  2.37500000E-03  9.37500000E-03  2.92640000E+00
 -2.37500000E-03  4.62500000E-03  3.29220000E+00
  2.37500000E-03  4.62500000E-03  3.29220000E+00
 -2.37500000E-03  9.37500000E-03  3.29220000E+00
  2.37500000E-03  9.37500000E-03  3.29220000E+00
 -2.37500000E-03  4.62500000E-03  3.29220000E+00
  2.37500000E-03  4.62500000E-03  3.29220000E+00
 -2.37500000E-03  9.37500000E-03  3.29220000E+00
  2.37500000E-03  9.37500000E-03  3.29220000E+00
 -2.37500000E-03  4.62500000E-03  3.56655000E+00
  2.37500000E-03  4.62500000E-03  3.56655000E+00
 -2.37500000E-03  9.37500000E-03  3.56655000E+00
  2.37500000E-03  9.37500000E-03  3.56655000E+00
 -2.37500000E-03  4.62500000E-03  3.56655000E+00
  2.37500000E-03  4.62500000E-03  3.56655000E+00
 -2.37500000E-03  9.37500000E-03  3.56655000E+00
  2.37500000E-03  9.37500000E-03  3.56655000E+00
 -2.37500000E-03  4.62500000E-03  3.65800000E+00
  2.37500000E-03  4.62500000E-03  3.65800000E+00
 -2.37500000E-03  9.37500000E-03  3.65800000E+00
  2.37500000E-03  9.37500000E-03  3.65800000E+00
CELLS        12       108
         8         0         1         2         3         4         5         6         7
         8         8         9        10        11        12        13        14        15
         8        16        17        18        19        20        21        22        23
         8        24        25        26        27        28        29        30        31
         8        32        33        34        35        36        37        38        39
         8        40        41        42        43        44        45        46        47
         8        48        49        50        51        52        53        54        55
         8        56        57        58        59        60        61        62        63
         8        64        65        66        67        68        69        70        71
         8        72        73        74        75        76        77        78        79
         8        80        81        82        83        84        85        86        87
         8        88        89        90        91        92        93        94        95
CELL_TYPES      12
11
11
11
11
11
11
11
11
11
11
11
11
CELL_DATA      12
SCALARS Max_Clad_Outside_Temp_C float
LOOKUP_TABLE default
  2.943465920558057E+02
  2.945713589087660E+02
  2.947961282678004E+02
  2.950209001292899E+02
  2.952456744896338E+02
  2.954704513452494E+02
  2.956952306925727E+02
  2.959200125280574E+02
  2.961447968481755E+02
  2.963695836494172E+02
  2.965943729282905E+02
  2.965943958245973E+02
SCALARS Max_Clad_Inside_Temp_C float
LOOKUP_TABLE default
  2.998267410329655E+02
  3.000515078859258E+02
  3.002762772449602E+02
  3.005010491064497E+02
  3.007258234667937E+02
  3.009506003224092E+02
  3.011753796697325E+02
  3.014001615052172E+02
  3.016249458253354E+02
  3.018497326265770E+02
  3.020745219054503E+02
  3.020745448017572E+02
SCALARS Max_Fuel_Surface_Temp_C float
LOOKUP_TABLE default
  3.271984454675282E+02
  3.274232123204885E+02
  3.276479816795230E+02
  3.278727535410125E+02
  3.280975279013564E+02
  3.283223047569720E+02
  3.285470841042952E+02
  3.287718659397799E+02
  3.289966502598981E+02
  3.292214370611397E+02
  3.294462263400130E+02
  3.294462492363199E+02
SCALARS Fuel_Centerline_Temp_C float
LOOKUP_TABLE default
  3.847610490506856E+02
  3.849858159036459E+02
  3.852105852626803E+02
  3.854353571241699E+02
  3.856601314845137E+02
  3.858849083401294E+02
  3.861096876874525E+02
  3.863344695229372E+02
  3.865592538430554E+02
  3.867840406442971E+02
  3.870088299231703E+02
  3.870088528194774E+02
SCALARS Max_Heat_Flux_kW/m**2 float
LOOKUP_TABLE default
  0.000000000000000E+00
  0.000000000000000E+00
  0.000000000000000E+00
  0.000000000000000E+00
  0.000000000000000E+00
  0.000000000000000E+00
  0.000000000000000E+00
  0.000000000000000E+00
  0.000000000000000E+00
  0.000000000000000E+00
  0.000000000000000E+00
  0.000000000000000E+00
