# vtk DataFile Version 2.0
Scalar Data
ASCII
DATASET UNSTRUCTURED_GRID
FIELD FieldData 2
Time 1 1 double
  1.951816438781830E+00
  dt 1 1 double
  5.000000000000000E-03
POINTS          80 double
 -7.00000000E-03 -7.00000000E-03  0.00000000E+00
  0.00000000E+00 -7.00000000E-03  0.00000000E+00
 -7.00000000E-03  0.00000000E+00  0.00000000E+00
  0.00000000E+00  0.00000000E+00  0.00000000E+00
 -7.00000000E-03 -7.00000000E-03  3.67500000E-01
  0.00000000E+00 -7.00000000E-03  3.67500000E-01
 -7.00000000E-03  0.00000000E+00  3.67500000E-01
  0.00000000E+00  0.00000000E+00  3.67500000E-01
 -7.00000000E-03 -7.00000000E-03  3.67500000E-01
  0.00000000E+00 -7.00000000E-03  3.67500000E-01
 -7.00000000E-03  0.00000000E+00  3.67500000E-01
  0.00000000E+00  0.00000000E+00  3.67500000E-01
 -7.00000000E-03 -7.00000000E-03  7.35000000E-01
  0.00000000E+00 -7.00000000E-03  7.35000000E-01
 -7.00000000E-03  0.00000000E+00  7.35000000E-01
  0.00000000E+00  0.00000000E+00  7.35000000E-01
 -7.00000000E-03 -7.00000000E-03  7.35000000E-01
  0.00000000E+00 -7.00000000E-03  7.35000000E-01
 -7.00000000E-03  0.00000000E+00  7.35000000E-01
  0.00000000E+00  0.00000000E+00  7.35000000E-01
 -7.00000000E-03 -7.00000000E-03  1.10250000E+00
  0.00000000E+00 -7.00000000E-03  1.10250000E+00
 -7.00000000E-03  0.00000000E+00  1.10250000E+00
  0.00000000E+00  0.00000000E+00  1.10250000E+00
 -7.00000000E-03 -7.00000000E-03  1.10250000E+00
  0.00000000E+00 -7.00000000E-03  1.10250000E+00
 -7.00000000E-03  0.00000000E+00  1.10250000E+00
  0.00000000E+00  0.00000000E+00  1.10250000E+00
 -7.00000000E-03 -7.00000000E-03  1.47000000E+00
  0.00000000E+00 -7.00000000E-03  1.47000000E+00
 -7.00000000E-03  0.00000000E+00  1.47000000E+00
  0.00000000E+00  0.00000000E+00  1.47000000E+00
 -7.00000000E-03 -7.00000000E-03  1.47000000E+00
  0.00000000E+00 -7.00000000E-03  1.47000000E+00
 -7.00000000E-03  0.00000000E+00  1.47000000E+00
  0.00000000E+00  0.00000000E+00  1.47000000E+00
 -7.00000000E-03 -7.00000000E-03  1.83750000E+00
  0.00000000E+00 -7.00000000E-03  1.83750000E+00
 -7.00000000E-03  0.00000000E+00  1.83750000E+00
  0.00000000E+00  0.00000000E+00  1.83750000E+00
 -7.00000000E-03 -7.00000000E-03  1.83750000E+00
  0.00000000E+00 -7.00000000E-03  1.83750000E+00
 -7.00000000E-03  0.00000000E+00  1.83750000E+00
  0.00000000E+00  0.00000000E+00  1.83750000E+00
 -7.00000000E-03 -7.00000000E-03  2.20500000E+00
  0.00000000E+00 -7.00000000E-03  2.20500000E+00
 -7.00000000E-03  0.00000000E+00  2.20500000E+00
  0.00000000E+00  0.00000000E+00  2.20500000E+00
 -7.00000000E-03 -7.00000000E-03  2.20500000E+00
  0.00000000E+00 -7.00000000E-03  2.20500000E+00
 -7.00000000E-03  0.00000000E+00  2.20500000E+00
  0.00000000E+00  0.00000000E+00  2.20500000E+00
 -7.00000000E-03 -7.00000000E-03  2.57250000E+00
  0.00000000E+00 -7.00000000E-03  2.57250000E+00
 -7.00000000E-03  0.00000000E+00  2.57250000E+00
  0.00000000E+00  0.00000000E+00  2.57250000E+00
 -7.00000000E-03 -7.00000000E-03  2.57250000E+00
  0.00000000E+00 -7.00000000E-03  2.57250000E+00
 -7.00000000E-03  0.00000000E+00  2.57250000E+00
  0.00000000E+00  0.00000000E+00  2.57250000E+00
 -7.00000000E-03 -7.00000000E-03  2.94000000E+00
  0.00000000E+00 -7.00000000E-03  2.94000000E+00
 -7.00000000E-03  0.00000000E+00  2.94000000E+00
  0.00000000E+00  0.00000000E+00  2.94000000E+00
 -7.00000000E-03 -7.00000000E-03  2.94000000E+00
  0.00000000E+00 -7.00000000E-03  2.94000000E+00
 -7.00000000E-03  0.00000000E+00  2.94000000E+00
  0.00000000E+00  0.00000000E+00  2.94000000E+00
 -7.00000000E-03 -7.00000000E-03  3.30750000E+00
  0.00000000E+00 -7.00000000E-03  3.30750000E+00
 -7.00000000E-03  0.00000000E+00  3.30750000E+00
  0.00000000E+00  0.00000000E+00  3.30750000E+00
 -7.00000000E-03 -7.00000000E-03  3.30750000E+00
  0.00000000E+00 -7.00000000E-03  3.30750000E+00
 -7.00000000E-03  0.00000000E+00  3.30750000E+00
  0.00000000E+00  0.00000000E+00  3.30750000E+00
 -7.00000000E-03 -7.00000000E-03  3.67500000E+00
  0.00000000E+00 -7.00000000E-03  3.67500000E+00
 -7.00000000E-03  0.00000000E+00  3.67500000E+00
  0.00000000E+00  0.00000000E+00  3.67500000E+00
CELLS        10        90
         8         0         1         2         3         4         5         6         7
         8         8         9        10        11        12        13        14        15
         8        16        17        18        19        20        21        22        23
         8        24        25        26        27        28        29        30        31
         8        32        33        34        35        36        37        38        39
         8        40        41        42        43        44        45        46        47
         8        48        49        50        51        52        53        54        55
         8        56        57        58        59        60        61        62        63
         8        64        65        66        67        68        69        70        71
         8        72        73        74        75        76        77        78        79
CELL_TYPES      10
11
11
11
11
11
11
11
11
11
11
CELL_DATA      10
SCALARS Liquid_Volume_Fraction float
LOOKUP_TABLE default
  1.000000000000000E+00
  1.000000000000000E+00
  1.000000000000000E+00
  1.000000000000000E+00
  1.000000000000000E+00
  1.000000000000000E+00
  1.000000000000000E+00
  1.000000000000000E+00
  1.000000000000000E+00
  1.000000000000000E+00
SCALARS Entrained_Volume_Fraction float
LOOKUP_TABLE default
  0.000000000000000E+00
  0.000000000000000E+00
  0.000000000000000E+00
  0.000000000000000E+00
  0.000000000000000E+00
  0.000000000000000E+00
  0.000000000000000E+00
  0.000000000000000E+00
  0.000000000000000E+00
  0.000000000000000E+00
SCALARS Vapor_Volume_Fraction float
LOOKUP_TABLE default
  0.000000000000000E+00
  0.000000000000000E+00
  0.000000000000000E+00
  0.000000000000000E+00
  0.000000000000000E+00
  0.000000000000000E+00
  0.000000000000000E+00
  0.000000000000000E+00
  0.000000000000000E+00
  0.000000000000000E+00
SCALARS Pressure float
LOOKUP_TABLE default
  1.650000010838887E+02
  1.650000010838647E+02
  1.650000010838252E+02
  1.650000010836649E+02
  1.650000010829408E+02
  1.650000010802453E+02
  1.650000010719473E+02
  1.650000010501627E+02
  1.650000010001646E+02
  1.650000008979789E+02
SCALARS Liquid_Enthalpy float
LOOKUP_TABLE default
  1.289142699259319E+03
  1.289142702688111E+03
  1.289142730539208E+03
  1.289142878505653E+03
  1.289143476535636E+03
  1.289145446315461E+03
  1.289150952346247E+03
  1.289164369175090E+03
  1.289193419747500E+03
  1.289271015615690E+03
SCALARS Vapor_Enthalpy float
LOOKUP_TABLE default
  2.568693940284235E+03
  2.568693940284235E+03
  2.568693940284235E+03
  2.568693940284235E+03
  2.568693940284235E+03
  2.568693940284235E+03
  2.568693940284235E+03
  2.568693940284235E+03
  2.568693940284235E+03
  2.568693940284235E+03
SCALARS Liquid_Density float
LOOKUP_TABLE default
  7.467818461594018E+02
  7.467818449107533E+02
  7.467818347683707E+02
  7.467817808842366E+02
  7.467815631028170E+02
  7.467808457774759E+02
  7.467788406644163E+02
  7.467739546531044E+02
  7.467633750584467E+02
  7.467351147259626E+02
SCALARS Vapor_Density float
LOOKUP_TABLE default
  1.130347851207606E+02
  1.130347851207606E+02
  1.130347851207606E+02
  1.130347851207606E+02
  1.130347851207606E+02
  1.130347851207606E+02
  1.130347851207606E+02
  1.130347851207606E+02
  1.130347851207606E+02
  1.130347851207606E+02
SCALARS Vapor_Generation float
LOOKUP_TABLE default
  0.000000000000000E+00
  0.000000000000000E+00
  0.000000000000000E+00
  0.000000000000000E+00
  0.000000000000000E+00
  0.000000000000000E+00
  0.000000000000000E+00
  0.000000000000000E+00
  0.000000000000000E+00
  0.000000000000000E+00
SCALARS Scalar_Cell_Flow_Area float
LOOKUP_TABLE default
  8.787781599999999E-05
  8.787781599999999E-05
  8.787781599999999E-05
  8.787781599999999E-05
  8.787781599999999E-05
  8.787781599999999E-05
  8.787781599999999E-05
  8.787781599999999E-05
  8.787781599999999E-05
  8.787781599999999E-05
SCALARS Channel_Wetted_Perimeter float
LOOKUP_TABLE default
  2.984513019999999E-02
  2.984513019999999E-02
  2.984513019999999E-02
  2.984513019999999E-02
  2.984513019999999E-02
  2.984513019999999E-02
  2.984513019999999E-02
  2.984513019999999E-02
  2.984513019999999E-02
  2.984513019999999E-02
SCALARS Equilibrium_Quality float
LOOKUP_TABLE default
                    NaN
                    NaN
                    NaN
                    NaN
                    NaN
                    NaN
                    NaN
                    NaN
                    NaN
                    NaN
SCALARS Mixture_Temperature_C float
LOOKUP_TABLE default
                    NaN
                    NaN
                    NaN
                    NaN
                    NaN
                    NaN
                    NaN
                    NaN
                    NaN
                    NaN
SCALARS Mixture_Mass_Flux_kg/s/m**2 float
LOOKUP_TABLE default
                    NaN
                    NaN
                    NaN
                    NaN
                    NaN
                    NaN
                    NaN
                    NaN
                    NaN
                    NaN
VECTORS Liquid_velocity float
  0.000000000000000E+00  0.000000000000000E+00  4.571391440809906E+00
  0.000000000000000E+00  0.000000000000000E+00  4.571389743451764E+00
  0.000000000000000E+00  0.000000000000000E+00  4.571389833562452E+00
  0.000000000000000E+00  0.000000000000000E+00  4.571390201450279E+00
  0.000000000000000E+00  0.000000000000000E+00  4.571391421259930E+00
  0.000000000000000E+00  0.000000000000000E+00  4.571394837648237E+00
  0.000000000000000E+00  0.000000000000000E+00  4.571403140440577E+00
  0.000000000000000E+00  0.000000000000000E+00  4.571420990209187E+00
  0.000000000000000E+00  0.000000000000000E+00  4.571467077266601E+00
  0.000000000000000E+00  0.000000000000000E+00  4.571486982942407E+00
VECTORS Vapor_velocity float
  0.000000000000000E+00  0.000000000000000E+00                    NaN
  0.000000000000000E+00  0.000000000000000E+00                    NaN
  0.000000000000000E+00  0.000000000000000E+00                    NaN
  0.000000000000000E+00  0.000000000000000E+00                    NaN
  0.000000000000000E+00  0.000000000000000E+00                    NaN
  0.000000000000000E+00  0.000000000000000E+00                    NaN
  0.000000000000000E+00  0.000000000000000E+00                    NaN
  0.000000000000000E+00  0.000000000000000E+00                    NaN
  0.000000000000000E+00  0.000000000000000E+00                    NaN
  0.000000000000000E+00  0.000000000000000E+00                    NaN
VECTORS Droplet_velocity float
  0.000000000000000E+00  0.000000000000000E+00                    NaN
  0.000000000000000E+00  0.000000000000000E+00                    NaN
  0.000000000000000E+00  0.000000000000000E+00                    NaN
  0.000000000000000E+00  0.000000000000000E+00                    NaN
  0.000000000000000E+00  0.000000000000000E+00                    NaN
  0.000000000000000E+00  0.000000000000000E+00                    NaN
  0.000000000000000E+00  0.000000000000000E+00                    NaN
  0.000000000000000E+00  0.000000000000000E+00                    NaN
  0.000000000000000E+00  0.000000000000000E+00                    NaN
  0.000000000000000E+00  0.000000000000000E+00                    NaN
