# vtk DataFile Version 2.0
Scalar Data
ASCII
DATASET UNSTRUCTURED_GRID
FIELD FieldData 2
Time 1 1 double
  5.018164387818496E-01
  dt 1 1 double
  5.000000000000000E-03
POINTS          80 double
 -7.00000000E-03 -7.00000000E-03  0.00000000E+00
  0.00000000E+00 -7.00000000E-03  0.00000000E+00
 -7.00000000E-03  0.00000000E+00  0.00000000E+00
  0.00000000E+00  0.00000000E+00  0.00000000E+00
 -7.00000000E-03 -7.00000000E-03  3.67500000E-01
  0.00000000E+00 -7.00000000E-03  3.67500000E-01
 -7.00000000E-03  0.00000000E+00  3.67500000E-01
  0.00000000E+00  0.00000000E+00  3.67500000E-01
 -7.00000000E-03 -7.00000000E-03  3.67500000E-01
  0.00000000E+00 -7.00000000E-03  3.67500000E-01
 -7.00000000E-03  0.00000000E+00  3.67500000E-01
  0.00000000E+00  0.00000000E+00  3.67500000E-01
 -7.00000000E-03 -7.00000000E-03  7.35000000E-01
  0.00000000E+00 -7.00000000E-03  7.35000000E-01
 -7.00000000E-03  0.00000000E+00  7.35000000E-01
  0.00000000E+00  0.00000000E+00  7.35000000E-01
 -7.00000000E-03 -7.00000000E-03  7.35000000E-01
  0.00000000E+00 -7.00000000E-03  7.35000000E-01
 -7.00000000E-03  0.00000000E+00  7.35000000E-01
  0.00000000E+00  0.00000000E+00  7.35000000E-01
 -7.00000000E-03 -7.00000000E-03  1.10250000E+00
  0.00000000E+00 -7.00000000E-03  1.10250000E+00
 -7.00000000E-03  0.00000000E+00  1.10250000E+00
  0.00000000E+00  0.00000000E+00  1.10250000E+00
 -7.00000000E-03 -7.00000000E-03  1.10250000E+00
  0.00000000E+00 -7.00000000E-03  1.10250000E+00
 -7.00000000E-03  0.00000000E+00  1.10250000E+00
  0.00000000E+00  0.00000000E+00  1.10250000E+00
 -7.00000000E-03 -7.00000000E-03  1.47000000E+00
  0.00000000E+00 -7.00000000E-03  1.47000000E+00
 -7.00000000E-03  0.00000000E+00  1.47000000E+00
  0.00000000E+00  0.00000000E+00  1.47000000E+00
 -7.00000000E-03 -7.00000000E-03  1.47000000E+00
  0.00000000E+00 -7.00000000E-03  1.47000000E+00
 -7.00000000E-03  0.00000000E+00  1.47000000E+00
  0.00000000E+00  0.00000000E+00  1.47000000E+00
 -7.00000000E-03 -7.00000000E-03  1.83750000E+00
  0.00000000E+00 -7.00000000E-03  1.83750000E+00
 -7.00000000E-03  0.00000000E+00  1.83750000E+00
  0.00000000E+00  0.00000000E+00  1.83750000E+00
 -7.00000000E-03 -7.00000000E-03  1.83750000E+00
  0.00000000E+00 -7.00000000E-03  1.83750000E+00
 -7.00000000E-03  0.00000000E+00  1.83750000E+00
  0.00000000E+00  0.00000000E+00  1.83750000E+00
 -7.00000000E-03 -7.00000000E-03  2.20500000E+00
  0.00000000E+00 -7.00000000E-03  2.20500000E+00
 -7.00000000E-03  0.00000000E+00  2.20500000E+00
  0.00000000E+00  0.00000000E+00  2.20500000E+00
 -7.00000000E-03 -7.00000000E-03  2.20500000E+00
  0.00000000E+00 -7.00000000E-03  2.20500000E+00
 -7.00000000E-03  0.00000000E+00  2.20500000E+00
  0.00000000E+00  0.00000000E+00  2.20500000E+00
 -7.00000000E-03 -7.00000000E-03  2.57250000E+00
  0.00000000E+00 -7.00000000E-03  2.57250000E+00
 -7.00000000E-03  0.00000000E+00  2.57250000E+00
  0.00000000E+00  0.00000000E+00  2.57250000E+00
 -7.00000000E-03 -7.00000000E-03  2.57250000E+00
  0.00000000E+00 -7.00000000E-03  2.57250000E+00
 -7.00000000E-03  0.00000000E+00  2.57250000E+00
  0.00000000E+00  0.00000000E+00  2.57250000E+00
 -7.00000000E-03 -7.00000000E-03  2.94000000E+00
  0.00000000E+00 -7.00000000E-03  2.94000000E+00
 -7.00000000E-03  0.00000000E+00  2.94000000E+00
  0.00000000E+00  0.00000000E+00  2.94000000E+00
 -7.00000000E-03 -7.00000000E-03  2.94000000E+00
  0.00000000E+00 -7.00000000E-03  2.94000000E+00
 -7.00000000E-03  0.00000000E+00  2.94000000E+00
  0.00000000E+00  0.00000000E+00  2.94000000E+00
 -7.00000000E-03 -7.00000000E-03  3.30750000E+00
  0.00000000E+00 -7.00000000E-03  3.30750000E+00
 -7.00000000E-03  0.00000000E+00  3.30750000E+00
  0.00000000E+00  0.00000000E+00  3.30750000E+00
 -7.00000000E-03 -7.00000000E-03  3.30750000E+00
  0.00000000E+00 -7.00000000E-03  3.30750000E+00
 -7.00000000E-03  0.00000000E+00  3.30750000E+00
  0.00000000E+00  0.00000000E+00  3.30750000E+00
 -7.00000000E-03 -7.00000000E-03  3.67500000E+00
  0.00000000E+00 -7.00000000E-03  3.67500000E+00
 -7.00000000E-03  0.00000000E+00  3.67500000E+00
  0.00000000E+00  0.00000000E+00  3.67500000E+00
CELLS        10        90
         8         0         1         2         3         4         5         6         7
         8         8         9        10        11        12        13        14        15
         8        16        17        18        19        20        21        22        23
         8        24        25        26        27        28        29        30        31
         8        32        33        34        35        36        37        38        39
         8        40        41        42        43        44        45        46        47
         8        48        49        50        51        52        53        54        55
         8        56        57        58        59        60        61        62        63
         8        64        65        66        67        68        69        70        71
         8        72        73        74        75        76        77        78        79
CELL_TYPES      10
11
11
11
11
11
11
11
11
11
11
CELL_DATA      10
SCALARS Liquid_Volume_Fraction float
LOOKUP_TABLE default
  1.000000000000000E+00
  1.000000000000000E+00
  1.000000000000000E+00
  1.000000000000000E+00
  1.000000000000000E+00
  1.000000000000000E+00
  1.000000000000000E+00
  1.000000000000000E+00
  1.000000000000000E+00
  1.000000000000000E+00
SCALARS Entrained_Volume_Fraction float
LOOKUP_TABLE default
  0.000000000000000E+00
  0.000000000000000E+00
  0.000000000000000E+00
  0.000000000000000E+00
  0.000000000000000E+00
  0.000000000000000E+00
  0.000000000000000E+00
  0.000000000000000E+00
  0.000000000000000E+00
  0.000000000000000E+00
SCALARS Vapor_Volume_Fraction float
LOOKUP_TABLE default
  0.000000000000000E+00
  0.000000000000000E+00
  0.000000000000000E+00
  0.000000000000000E+00
  0.000000000000000E+00
  0.000000000000000E+00
  0.000000000000000E+00
  0.000000000000000E+00
  0.000000000000000E+00
  0.000000000000000E+00
SCALARS Pressure float
LOOKUP_TABLE default
  1.650000218453752E+02
  1.650000207966270E+02
  1.650000178976575E+02
  1.650000138795707E+02
  1.650000097507103E+02
  1.650000064048280E+02
  1.650000042026668E+02
  1.650000030235234E+02
  1.650000025326009E+02
  1.650000024085479E+02
SCALARS Liquid_Enthalpy float
LOOKUP_TABLE default
  1.289332459413929E+03
  1.290009629782759E+03
  1.291303643290291E+03
  1.293035826954110E+03
  1.294816822750722E+03
  1.296286512327653E+03
  1.297279179081704E+03
  1.297827486727061E+03
  1.298066824337653E+03
  1.298237996846024E+03
SCALARS Vapor_Enthalpy float
LOOKUP_TABLE default
  2.568693940284235E+03
  2.568693940284235E+03
  2.568693940284235E+03
  2.568693940284235E+03
  2.568693940284235E+03
  2.568693940284235E+03
  2.568693940284235E+03
  2.568693940284235E+03
  2.568693940284235E+03
  2.568693940284235E+03
SCALARS Liquid_Density float
LOOKUP_TABLE default
  7.467127390993090E+02
  7.464660001743406E+02
  7.459940129663747E+02
  7.453611949966796E+02
  7.447093369015395E+02
  7.441704952257206E+02
  7.438060738536924E+02
  7.436046187866982E+02
  7.435166465652379E+02
  7.434537158681601E+02
SCALARS Vapor_Density float
LOOKUP_TABLE default
  1.130347851207606E+02
  1.130347851207606E+02
  1.130347851207606E+02
  1.130347851207606E+02
  1.130347851207606E+02
  1.130347851207606E+02
  1.130347851207606E+02
  1.130347851207606E+02
  1.130347851207606E+02
  1.130347851207606E+02
SCALARS Vapor_Generation float
LOOKUP_TABLE default
  0.000000000000000E+00
  0.000000000000000E+00
  0.000000000000000E+00
  0.000000000000000E+00
  0.000000000000000E+00
  0.000000000000000E+00
  0.000000000000000E+00
  0.000000000000000E+00
  0.000000000000000E+00
  0.000000000000000E+00
SCALARS Scalar_Cell_Flow_Area float
LOOKUP_TABLE default
  8.787781599999999E-05
  8.787781599999999E-05
  8.787781599999999E-05
  8.787781599999999E-05
  8.787781599999999E-05
  8.787781599999999E-05
  8.787781599999999E-05
  8.787781599999999E-05
  8.787781599999999E-05
  8.787781599999999E-05
SCALARS Channel_Wetted_Perimeter float
LOOKUP_TABLE default
  2.984513019999999E-02
  2.984513019999999E-02
  2.984513019999999E-02
  2.984513019999999E-02
  2.984513019999999E-02
  2.984513019999999E-02
  2.984513019999999E-02
  2.984513019999999E-02
  2.984513019999999E-02
  2.984513019999999E-02
SCALARS Equilibrium_Quality float
LOOKUP_TABLE default
                    NaN
                    NaN
                    NaN
                    NaN
                    NaN
                    NaN
                    NaN
                    NaN
                    NaN
                    NaN
SCALARS Mixture_Temperature_C float
LOOKUP_TABLE default
                    NaN
                    NaN
                    NaN
                    NaN
                    NaN
                    NaN
                    NaN
                    NaN
                    NaN
                    NaN
SCALARS Mixture_Mass_Flux_kg/s/m**2 float
LOOKUP_TABLE default
                    NaN
                    NaN
                    NaN
                    NaN
                    NaN
                    NaN
                    NaN
                    NaN
                    NaN
                    NaN
VECTORS Liquid_velocity float
  0.000000000000000E+00  0.000000000000000E+00  4.571931806828804E+00
  0.000000000000000E+00  0.000000000000000E+00  4.572781404999697E+00
  0.000000000000000E+00  0.000000000000000E+00  4.573844490882065E+00
  0.000000000000000E+00  0.000000000000000E+00  4.574762316261957E+00
  0.000000000000000E+00  0.000000000000000E+00  4.575285189100274E+00
  0.000000000000000E+00  0.000000000000000E+00  4.575398408862320E+00
  0.000000000000000E+00  0.000000000000000E+00  4.575256782241392E+00
  0.000000000000000E+00  0.000000000000000E+00  4.575040875800831E+00
  0.000000000000000E+00  0.000000000000000E+00  4.574919500874945E+00
  0.000000000000000E+00  0.000000000000000E+00  4.574859721709641E+00
VECTORS Vapor_velocity float
  0.000000000000000E+00  0.000000000000000E+00                    NaN
  0.000000000000000E+00  0.000000000000000E+00                    NaN
  0.000000000000000E+00  0.000000000000000E+00                    NaN
  0.000000000000000E+00  0.000000000000000E+00                    NaN
  0.000000000000000E+00  0.000000000000000E+00                    NaN
  0.000000000000000E+00  0.000000000000000E+00                    NaN
  0.000000000000000E+00  0.000000000000000E+00                    NaN
  0.000000000000000E+00  0.000000000000000E+00                    NaN
  0.000000000000000E+00  0.000000000000000E+00                    NaN
  0.000000000000000E+00  0.000000000000000E+00                    NaN
VECTORS Droplet_velocity float
  0.000000000000000E+00  0.000000000000000E+00                    NaN
  0.000000000000000E+00  0.000000000000000E+00                    NaN
  0.000000000000000E+00  0.000000000000000E+00                    NaN
  0.000000000000000E+00  0.000000000000000E+00                    NaN
  0.000000000000000E+00  0.000000000000000E+00                    NaN
  0.000000000000000E+00  0.000000000000000E+00                    NaN
  0.000000000000000E+00  0.000000000000000E+00                    NaN
  0.000000000000000E+00  0.000000000000000E+00                    NaN
  0.000000000000000E+00  0.000000000000000E+00                    NaN
  0.000000000000000E+00  0.000000000000000E+00                    NaN
