# vtk DataFile Version 2.0
Scalar Data
ASCII
DATASET UNSTRUCTURED_GRID
FIELD FieldData 2
Time 1 1 double
  1.518164387818493E-01
  dt 1 1 double
  5.000000000000000E-03
POINTS          80 double
 -7.00000000E-03 -7.00000000E-03  0.00000000E+00
  0.00000000E+00 -7.00000000E-03  0.00000000E+00
 -7.00000000E-03  0.00000000E+00  0.00000000E+00
  0.00000000E+00  0.00000000E+00  0.00000000E+00
 -7.00000000E-03 -7.00000000E-03  3.67500000E-01
  0.00000000E+00 -7.00000000E-03  3.67500000E-01
 -7.00000000E-03  0.00000000E+00  3.67500000E-01
  0.00000000E+00  0.00000000E+00  3.67500000E-01
 -7.00000000E-03 -7.00000000E-03  3.67500000E-01
  0.00000000E+00 -7.00000000E-03  3.67500000E-01
 -7.00000000E-03  0.00000000E+00  3.67500000E-01
  0.00000000E+00  0.00000000E+00  3.67500000E-01
 -7.00000000E-03 -7.00000000E-03  7.35000000E-01
  0.00000000E+00 -7.00000000E-03  7.35000000E-01
 -7.00000000E-03  0.00000000E+00  7.35000000E-01
  0.00000000E+00  0.00000000E+00  7.35000000E-01
 -7.00000000E-03 -7.00000000E-03  7.35000000E-01
  0.00000000E+00 -7.00000000E-03  7.35000000E-01
 -7.00000000E-03  0.00000000E+00  7.35000000E-01
  0.00000000E+00  0.00000000E+00  7.35000000E-01
 -7.00000000E-03 -7.00000000E-03  1.10250000E+00
  0.00000000E+00 -7.00000000E-03  1.10250000E+00
 -7.00000000E-03  0.00000000E+00  1.10250000E+00
  0.00000000E+00  0.00000000E+00  1.10250000E+00
 -7.00000000E-03 -7.00000000E-03  1.10250000E+00
  0.00000000E+00 -7.00000000E-03  1.10250000E+00
 -7.00000000E-03  0.00000000E+00  1.10250000E+00
  0.00000000E+00  0.00000000E+00  1.10250000E+00
 -7.00000000E-03 -7.00000000E-03  1.47000000E+00
  0.00000000E+00 -7.00000000E-03  1.47000000E+00
 -7.00000000E-03  0.00000000E+00  1.47000000E+00
  0.00000000E+00  0.00000000E+00  1.47000000E+00
 -7.00000000E-03 -7.00000000E-03  1.47000000E+00
  0.00000000E+00 -7.00000000E-03  1.47000000E+00
 -7.00000000E-03  0.00000000E+00  1.47000000E+00
  0.00000000E+00  0.00000000E+00  1.47000000E+00
 -7.00000000E-03 -7.00000000E-03  1.83750000E+00
  0.00000000E+00 -7.00000000E-03  1.83750000E+00
 -7.00000000E-03  0.00000000E+00  1.83750000E+00
  0.00000000E+00  0.00000000E+00  1.83750000E+00
 -7.00000000E-03 -7.00000000E-03  1.83750000E+00
  0.00000000E+00 -7.00000000E-03  1.83750000E+00
 -7.00000000E-03  0.00000000E+00  1.83750000E+00
  0.00000000E+00  0.00000000E+00  1.83750000E+00
 -7.00000000E-03 -7.00000000E-03  2.20500000E+00
  0.00000000E+00 -7.00000000E-03  2.20500000E+00
 -7.00000000E-03  0.00000000E+00  2.20500000E+00
  0.00000000E+00  0.00000000E+00  2.20500000E+00
 -7.00000000E-03 -7.00000000E-03  2.20500000E+00
  0.00000000E+00 -7.00000000E-03  2.20500000E+00
 -7.00000000E-03  0.00000000E+00  2.20500000E+00
  0.00000000E+00  0.00000000E+00  2.20500000E+00
 -7.00000000E-03 -7.00000000E-03  2.57250000E+00
  0.00000000E+00 -7.00000000E-03  2.57250000E+00
 -7.00000000E-03  0.00000000E+00  2.57250000E+00
  0.00000000E+00  0.00000000E+00  2.57250000E+00
 -7.00000000E-03 -7.00000000E-03  2.57250000E+00
  0.00000000E+00 -7.00000000E-03  2.57250000E+00
 -7.00000000E-03  0.00000000E+00  2.57250000E+00
  0.00000000E+00  0.00000000E+00  2.57250000E+00
 -7.00000000E-03 -7.00000000E-03  2.94000000E+00
  0.00000000E+00 -7.00000000E-03  2.94000000E+00
 -7.00000000E-03  0.00000000E+00  2.94000000E+00
  0.00000000E+00  0.00000000E+00  2.94000000E+00
 -7.00000000E-03 -7.00000000E-03  2.94000000E+00
  0.00000000E+00 -7.00000000E-03  2.94000000E+00
 -7.00000000E-03  0.00000000E+00  2.94000000E+00
  0.00000000E+00  0.00000000E+00  2.94000000E+00
 -7.00000000E-03 -7.00000000E-03  3.30750000E+00
  0.00000000E+00 -7.00000000E-03  3.30750000E+00
 -7.00000000E-03  0.00000000E+00  3.30750000E+00
  0.00000000E+00  0.00000000E+00  3.30750000E+00
 -7.00000000E-03 -7.00000000E-03  3.30750000E+00
  0.00000000E+00 -7.00000000E-03  3.30750000E+00
 -7.00000000E-03  0.00000000E+00  3.30750000E+00
  0.00000000E+00  0.00000000E+00  3.30750000E+00
 -7.00000000E-03 -7.00000000E-03  3.67500000E+00
  0.00000000E+00 -7.00000000E-03  3.67500000E+00
 -7.00000000E-03  0.00000000E+00  3.67500000E+00
  0.00000000E+00  0.00000000E+00  3.67500000E+00
CELLS        10        90
         8         0         1         2         3         4         5         6         7
         8         8         9        10        11        12        13        14        15
         8        16        17        18        19        20        21        22        23
         8        24        25        26        27        28        29        30        31
         8        32        33        34        35        36        37        38        39
         8        40        41        42        43        44        45        46        47
         8        48        49        50        51        52        53        54        55
         8        56        57        58        59        60        61        62        63
         8        64        65        66        67        68        69        70        71
         8        72        73        74        75        76        77        78        79
CELL_TYPES      10
11
11
11
11
11
11
11
11
11
11
CELL_DATA      10
SCALARS Liquid_Volume_Fraction float
LOOKUP_TABLE default
  1.000000000000000E+00
  1.000000000000000E+00
  1.000000000000000E+00
  1.000000000000000E+00
  1.000000000000000E+00
  1.000000000000000E+00
  1.000000000000000E+00
  1.000000000000000E+00
  1.000000000000000E+00
  1.000000000000000E+00
SCALARS Entrained_Volume_Fraction float
LOOKUP_TABLE default
  0.000000000000000E+00
  0.000000000000000E+00
  0.000000000000000E+00
  0.000000000000000E+00
  0.000000000000000E+00
  0.000000000000000E+00
  0.000000000000000E+00
  0.000000000000000E+00
  0.000000000000000E+00
  0.000000000000000E+00
SCALARS Vapor_Volume_Fraction float
LOOKUP_TABLE default
  0.000000000000000E+00
  0.000000000000000E+00
  0.000000000000000E+00
  0.000000000000000E+00
  0.000000000000000E+00
  0.000000000000000E+00
  0.000000000000000E+00
  0.000000000000000E+00
  0.000000000000000E+00
  0.000000000000000E+00
SCALARS Pressure float
LOOKUP_TABLE default
  1.649967234132728E+02
  1.649967282617541E+02
  1.649968320841934E+02
  1.649970029563939E+02
  1.649972390898010E+02
  1.649975401494074E+02
  1.649979061308962E+02
  1.649983369590019E+02
  1.649988324807261E+02
  1.649993925181869E+02
SCALARS Liquid_Enthalpy float
LOOKUP_TABLE default
  1.294297548048009E+03
  1.297651672982355E+03
  1.298560880149718E+03
  1.298370130035213E+03
  1.298070817481131E+03
  1.297913346621001E+03
  1.297857590336803E+03
  1.297842838041318E+03
  1.297840256184050E+03
  1.299721918593172E+03
SCALARS Vapor_Enthalpy float
LOOKUP_TABLE default
  2.568693940284235E+03
  2.568693940284235E+03
  2.568693940284235E+03
  2.568693940284235E+03
  2.568693940284235E+03
  2.568693940284235E+03
  2.568693940284235E+03
  2.568693940284235E+03
  2.568693940284235E+03
  2.568693940284235E+03
SCALARS Liquid_Density float
LOOKUP_TABLE default
  7.448989261374252E+02
  7.436686307044346E+02
  7.433343998007106E+02
  7.434045826518379E+02
  7.435146745968631E+02
  7.435726131518724E+02
  7.435931726462154E+02
  7.435986730792310E+02
  7.435997123216709E+02
  7.429075708274707E+02
SCALARS Vapor_Density float
LOOKUP_TABLE default
  1.130347851207606E+02
  1.130347851207606E+02
  1.130347851207606E+02
  1.130347851207606E+02
  1.130347851207606E+02
  1.130347851207606E+02
  1.130347851207606E+02
  1.130347851207606E+02
  1.130347851207606E+02
  1.130347851207606E+02
SCALARS Vapor_Generation float
LOOKUP_TABLE default
  0.000000000000000E+00
  0.000000000000000E+00
  0.000000000000000E+00
  0.000000000000000E+00
  0.000000000000000E+00
  0.000000000000000E+00
  0.000000000000000E+00
  0.000000000000000E+00
  0.000000000000000E+00
  0.000000000000000E+00
SCALARS Scalar_Cell_Flow_Area float
LOOKUP_TABLE default
  8.787781599999999E-05
  8.787781599999999E-05
  8.787781599999999E-05
  8.787781599999999E-05
  8.787781599999999E-05
  8.787781599999999E-05
  8.787781599999999E-05
  8.787781599999999E-05
  8.787781599999999E-05
  8.787781599999999E-05
SCALARS Channel_Wetted_Perimeter float
LOOKUP_TABLE default
  2.984513019999999E-02
  2.984513019999999E-02
  2.984513019999999E-02
  2.984513019999999E-02
  2.984513019999999E-02
  2.984513019999999E-02
  2.984513019999999E-02
  2.984513019999999E-02
  2.984513019999999E-02
  2.984513019999999E-02
SCALARS Equilibrium_Quality float
LOOKUP_TABLE default
                    NaN
                    NaN
                    NaN
                    NaN
                    NaN
                    NaN
                    NaN
                    NaN
                    NaN
                    NaN
SCALARS Mixture_Temperature_C float
LOOKUP_TABLE default
                    NaN
                    NaN
                    NaN
                    NaN
                    NaN
                    NaN
                    NaN
                    NaN
                    NaN
                    NaN
SCALARS Mixture_Mass_Flux_kg/s/m**2 float
LOOKUP_TABLE default
                    NaN
                    NaN
                    NaN
                    NaN
                    NaN
                    NaN
                    NaN
                    NaN
                    NaN
                    NaN
VECTORS Liquid_velocity float
  0.000000000000000E+00  0.000000000000000E+00  4.577961312517772E+00
  0.000000000000000E+00  0.000000000000000E+00  4.578256669132543E+00
  0.000000000000000E+00  0.000000000000000E+00  4.577659855459496E+00
  0.000000000000000E+00  0.000000000000000E+00  4.577958482351347E+00
  0.000000000000000E+00  0.000000000000000E+00  4.578917596015345E+00
  0.000000000000000E+00  0.000000000000000E+00  4.580048847462916E+00
  0.000000000000000E+00  0.000000000000000E+00  4.581159164099651E+00
  0.000000000000000E+00  0.000000000000000E+00  4.582231128072174E+00
  0.000000000000000E+00  0.000000000000000E+00  4.584350025436464E+00
  0.000000000000000E+00  0.000000000000000E+00  4.585993057388887E+00
VECTORS Vapor_velocity float
  0.000000000000000E+00  0.000000000000000E+00                    NaN
  0.000000000000000E+00  0.000000000000000E+00                    NaN
  0.000000000000000E+00  0.000000000000000E+00                    NaN
  0.000000000000000E+00  0.000000000000000E+00                    NaN
  0.000000000000000E+00  0.000000000000000E+00                    NaN
  0.000000000000000E+00  0.000000000000000E+00                    NaN
  0.000000000000000E+00  0.000000000000000E+00                    NaN
  0.000000000000000E+00  0.000000000000000E+00                    NaN
  0.000000000000000E+00  0.000000000000000E+00                    NaN
  0.000000000000000E+00  0.000000000000000E+00                    NaN
VECTORS Droplet_velocity float
  0.000000000000000E+00  0.000000000000000E+00                    NaN
  0.000000000000000E+00  0.000000000000000E+00                    NaN
  0.000000000000000E+00  0.000000000000000E+00                    NaN
  0.000000000000000E+00  0.000000000000000E+00                    NaN
  0.000000000000000E+00  0.000000000000000E+00                    NaN
  0.000000000000000E+00  0.000000000000000E+00                    NaN
  0.000000000000000E+00  0.000000000000000E+00                    NaN
  0.000000000000000E+00  0.000000000000000E+00                    NaN
  0.000000000000000E+00  0.000000000000000E+00                    NaN
  0.000000000000000E+00  0.000000000000000E+00                    NaN
