# vtk DataFile Version 2.0
Scalar Data
ASCII
DATASET UNSTRUCTURED_GRID
FIELD FieldData 2
Time 1 1 double
  1.499999999999972E+01
  dt 1 1 double
  1.000000000000000E-02
POINTS         640 double
 -1.40000000E-02 -1.40000000E-02  0.00000000E+00
  0.00000000E+00 -1.40000000E-02  0.00000000E+00
 -1.40000000E-02  0.00000000E+00  0.00000000E+00
  0.00000000E+00  0.00000000E+00  0.00000000E+00
 -1.40000000E-02 -1.40000000E-02  1.82900000E-01
  0.00000000E+00 -1.40000000E-02  1.82900000E-01
 -1.40000000E-02  0.00000000E+00  1.82900000E-01
  0.00000000E+00  0.00000000E+00  1.82900000E-01
 -1.40000000E-02 -1.40000000E-02  1.82900000E-01
  0.00000000E+00 -1.40000000E-02  1.82900000E-01
 -1.40000000E-02  0.00000000E+00  1.82900000E-01
  0.00000000E+00  0.00000000E+00  1.82900000E-01
 -1.40000000E-02 -1.40000000E-02  3.65800000E-01
  0.00000000E+00 -1.40000000E-02  3.65800000E-01
 -1.40000000E-02  0.00000000E+00  3.65800000E-01
  0.00000000E+00  0.00000000E+00  3.65800000E-01
 -1.40000000E-02 -1.40000000E-02  3.65800000E-01
  0.00000000E+00 -1.40000000E-02  3.65800000E-01
 -1.40000000E-02  0.00000000E+00  3.65800000E-01
  0.00000000E+00  0.00000000E+00  3.65800000E-01
 -1.40000000E-02 -1.40000000E-02  5.48700000E-01
  0.00000000E+00 -1.40000000E-02  5.48700000E-01
 -1.40000000E-02  0.00000000E+00  5.48700000E-01
  0.00000000E+00  0.00000000E+00  5.48700000E-01
 -1.40000000E-02 -1.40000000E-02  5.48700000E-01
  0.00000000E+00 -1.40000000E-02  5.48700000E-01
 -1.40000000E-02  0.00000000E+00  5.48700000E-01
  0.00000000E+00  0.00000000E+00  5.48700000E-01
 -1.40000000E-02 -1.40000000E-02  7.31600000E-01
  0.00000000E+00 -1.40000000E-02  7.31600000E-01
 -1.40000000E-02  0.00000000E+00  7.31600000E-01
  0.00000000E+00  0.00000000E+00  7.31600000E-01
 -1.40000000E-02 -1.40000000E-02  7.31600000E-01
  0.00000000E+00 -1.40000000E-02  7.31600000E-01
 -1.40000000E-02  0.00000000E+00  7.31600000E-01
  0.00000000E+00  0.00000000E+00  7.31600000E-01
 -1.40000000E-02 -1.40000000E-02  9.14500000E-01
  0.00000000E+00 -1.40000000E-02  9.14500000E-01
 -1.40000000E-02  0.00000000E+00  9.14500000E-01
  0.00000000E+00  0.00000000E+00  9.14500000E-01
 -1.40000000E-02 -1.40000000E-02  9.14500000E-01
  0.00000000E+00 -1.40000000E-02  9.14500000E-01
 -1.40000000E-02  0.00000000E+00  9.14500000E-01
  0.00000000E+00  0.00000000E+00  9.14500000E-01
 -1.40000000E-02 -1.40000000E-02  1.09740000E+00
  0.00000000E+00 -1.40000000E-02  1.09740000E+00
 -1.40000000E-02  0.00000000E+00  1.09740000E+00
  0.00000000E+00  0.00000000E+00  1.09740000E+00
 -1.40000000E-02 -1.40000000E-02  1.09740000E+00
  0.00000000E+00 -1.40000000E-02  1.09740000E+00
 -1.40000000E-02  0.00000000E+00  1.09740000E+00
  0.00000000E+00  0.00000000E+00  1.09740000E+00
 -1.40000000E-02 -1.40000000E-02  1.28030000E+00
  0.00000000E+00 -1.40000000E-02  1.28030000E+00
 -1.40000000E-02  0.00000000E+00  1.28030000E+00
  0.00000000E+00  0.00000000E+00  1.28030000E+00
 -1.40000000E-02 -1.40000000E-02  1.28030000E+00
  0.00000000E+00 -1.40000000E-02  1.28030000E+00
 -1.40000000E-02  0.00000000E+00  1.28030000E+00
  0.00000000E+00  0.00000000E+00  1.28030000E+00
 -1.40000000E-02 -1.40000000E-02  1.46320000E+00
  0.00000000E+00 -1.40000000E-02  1.46320000E+00
 -1.40000000E-02  0.00000000E+00  1.46320000E+00
  0.00000000E+00  0.00000000E+00  1.46320000E+00
 -1.40000000E-02 -1.40000000E-02  1.46320000E+00
  0.00000000E+00 -1.40000000E-02  1.46320000E+00
 -1.40000000E-02  0.00000000E+00  1.46320000E+00
  0.00000000E+00  0.00000000E+00  1.46320000E+00
 -1.40000000E-02 -1.40000000E-02  1.64610000E+00
  0.00000000E+00 -1.40000000E-02  1.64610000E+00
 -1.40000000E-02  0.00000000E+00  1.64610000E+00
  0.00000000E+00  0.00000000E+00  1.64610000E+00
 -1.40000000E-02 -1.40000000E-02  1.64610000E+00
  0.00000000E+00 -1.40000000E-02  1.64610000E+00
 -1.40000000E-02  0.00000000E+00  1.64610000E+00
  0.00000000E+00  0.00000000E+00  1.64610000E+00
 -1.40000000E-02 -1.40000000E-02  1.82900000E+00
  0.00000000E+00 -1.40000000E-02  1.82900000E+00
 -1.40000000E-02  0.00000000E+00  1.82900000E+00
  0.00000000E+00  0.00000000E+00  1.82900000E+00
 -1.40000000E-02 -1.40000000E-02  1.82900000E+00
  0.00000000E+00 -1.40000000E-02  1.82900000E+00
 -1.40000000E-02  0.00000000E+00  1.82900000E+00
  0.00000000E+00  0.00000000E+00  1.82900000E+00
 -1.40000000E-02 -1.40000000E-02  2.01190000E+00
  0.00000000E+00 -1.40000000E-02  2.01190000E+00
 -1.40000000E-02  0.00000000E+00  2.01190000E+00
  0.00000000E+00  0.00000000E+00  2.01190000E+00
 -1.40000000E-02 -1.40000000E-02  2.01190000E+00
  0.00000000E+00 -1.40000000E-02  2.01190000E+00
 -1.40000000E-02  0.00000000E+00  2.01190000E+00
  0.00000000E+00  0.00000000E+00  2.01190000E+00
 -1.40000000E-02 -1.40000000E-02  2.19480000E+00
  0.00000000E+00 -1.40000000E-02  2.19480000E+00
 -1.40000000E-02  0.00000000E+00  2.19480000E+00
  0.00000000E+00  0.00000000E+00  2.19480000E+00
 -1.40000000E-02 -1.40000000E-02  2.19480000E+00
  0.00000000E+00 -1.40000000E-02  2.19480000E+00
 -1.40000000E-02  0.00000000E+00  2.19480000E+00
  0.00000000E+00  0.00000000E+00  2.19480000E+00
 -1.40000000E-02 -1.40000000E-02  2.37770000E+00
  0.00000000E+00 -1.40000000E-02  2.37770000E+00
 -1.40000000E-02  0.00000000E+00  2.37770000E+00
  0.00000000E+00  0.00000000E+00  2.37770000E+00
 -1.40000000E-02 -1.40000000E-02  2.37770000E+00
  0.00000000E+00 -1.40000000E-02  2.37770000E+00
 -1.40000000E-02  0.00000000E+00  2.37770000E+00
  0.00000000E+00  0.00000000E+00  2.37770000E+00
 -1.40000000E-02 -1.40000000E-02  2.56060000E+00
  0.00000000E+00 -1.40000000E-02  2.56060000E+00
 -1.40000000E-02  0.00000000E+00  2.56060000E+00
  0.00000000E+00  0.00000000E+00  2.56060000E+00
 -1.40000000E-02 -1.40000000E-02  2.56060000E+00
  0.00000000E+00 -1.40000000E-02  2.56060000E+00
 -1.40000000E-02  0.00000000E+00  2.56060000E+00
  0.00000000E+00  0.00000000E+00  2.56060000E+00
 -1.40000000E-02 -1.40000000E-02  2.74350000E+00
  0.00000000E+00 -1.40000000E-02  2.74350000E+00
 -1.40000000E-02  0.00000000E+00  2.74350000E+00
  0.00000000E+00  0.00000000E+00  2.74350000E+00
 -1.40000000E-02 -1.40000000E-02  2.74350000E+00
  0.00000000E+00 -1.40000000E-02  2.74350000E+00
 -1.40000000E-02  0.00000000E+00  2.74350000E+00
  0.00000000E+00  0.00000000E+00  2.74350000E+00
 -1.40000000E-02 -1.40000000E-02  2.92640000E+00
  0.00000000E+00 -1.40000000E-02  2.92640000E+00
 -1.40000000E-02  0.00000000E+00  2.92640000E+00
  0.00000000E+00  0.00000000E+00  2.92640000E+00
 -1.40000000E-02 -1.40000000E-02  2.92640000E+00
  0.00000000E+00 -1.40000000E-02  2.92640000E+00
 -1.40000000E-02  0.00000000E+00  2.92640000E+00
  0.00000000E+00  0.00000000E+00  2.92640000E+00
 -1.40000000E-02 -1.40000000E-02  3.10930000E+00
  0.00000000E+00 -1.40000000E-02  3.10930000E+00
 -1.40000000E-02  0.00000000E+00  3.10930000E+00
  0.00000000E+00  0.00000000E+00  3.10930000E+00
 -1.40000000E-02 -1.40000000E-02  3.10930000E+00
  0.00000000E+00 -1.40000000E-02  3.10930000E+00
 -1.40000000E-02  0.00000000E+00  3.10930000E+00
  0.00000000E+00  0.00000000E+00  3.10930000E+00
 -1.40000000E-02 -1.40000000E-02  3.29220000E+00
  0.00000000E+00 -1.40000000E-02  3.29220000E+00
 -1.40000000E-02  0.00000000E+00  3.29220000E+00
  0.00000000E+00  0.00000000E+00  3.29220000E+00
 -1.40000000E-02 -1.40000000E-02  3.29220000E+00
  0.00000000E+00 -1.40000000E-02  3.29220000E+00
 -1.40000000E-02  0.00000000E+00  3.29220000E+00
  0.00000000E+00  0.00000000E+00  3.29220000E+00
 -1.40000000E-02 -1.40000000E-02  3.47510000E+00
  0.00000000E+00 -1.40000000E-02  3.47510000E+00
 -1.40000000E-02  0.00000000E+00  3.47510000E+00
  0.00000000E+00  0.00000000E+00  3.47510000E+00
 -1.40000000E-02 -1.40000000E-02  3.47510000E+00
  0.00000000E+00 -1.40000000E-02  3.47510000E+00
 -1.40000000E-02  0.00000000E+00  3.47510000E+00
  0.00000000E+00  0.00000000E+00  3.47510000E+00
 -1.40000000E-02 -1.40000000E-02  3.65800000E+00
  0.00000000E+00 -1.40000000E-02  3.65800000E+00
 -1.40000000E-02  0.00000000E+00  3.65800000E+00
  0.00000000E+00  0.00000000E+00  3.65800000E+00
  0.00000000E+00 -1.40000000E-02  0.00000000E+00
  1.40000000E-02 -1.40000000E-02  0.00000000E+00
  0.00000000E+00  0.00000000E+00  0.00000000E+00
  1.40000000E-02  0.00000000E+00  0.00000000E+00
  0.00000000E+00 -1.40000000E-02  1.82900000E-01
  1.40000000E-02 -1.40000000E-02  1.82900000E-01
  0.00000000E+00  0.00000000E+00  1.82900000E-01
  1.40000000E-02  0.00000000E+00  1.82900000E-01
  0.00000000E+00 -1.40000000E-02  1.82900000E-01
  1.40000000E-02 -1.40000000E-02  1.82900000E-01
  0.00000000E+00  0.00000000E+00  1.82900000E-01
  1.40000000E-02  0.00000000E+00  1.82900000E-01
  0.00000000E+00 -1.40000000E-02  3.65800000E-01
  1.40000000E-02 -1.40000000E-02  3.65800000E-01
  0.00000000E+00  0.00000000E+00  3.65800000E-01
  1.40000000E-02  0.00000000E+00  3.65800000E-01
  0.00000000E+00 -1.40000000E-02  3.65800000E-01
  1.40000000E-02 -1.40000000E-02  3.65800000E-01
  0.00000000E+00  0.00000000E+00  3.65800000E-01
  1.40000000E-02  0.00000000E+00  3.65800000E-01
  0.00000000E+00 -1.40000000E-02  5.48700000E-01
  1.40000000E-02 -1.40000000E-02  5.48700000E-01
  0.00000000E+00  0.00000000E+00  5.48700000E-01
  1.40000000E-02  0.00000000E+00  5.48700000E-01
  0.00000000E+00 -1.40000000E-02  5.48700000E-01
  1.40000000E-02 -1.40000000E-02  5.48700000E-01
  0.00000000E+00  0.00000000E+00  5.48700000E-01
  1.40000000E-02  0.00000000E+00  5.48700000E-01
  0.00000000E+00 -1.40000000E-02  7.31600000E-01
  1.40000000E-02 -1.40000000E-02  7.31600000E-01
  0.00000000E+00  0.00000000E+00  7.31600000E-01
  1.40000000E-02  0.00000000E+00  7.31600000E-01
  0.00000000E+00 -1.40000000E-02  7.31600000E-01
  1.40000000E-02 -1.40000000E-02  7.31600000E-01
  0.00000000E+00  0.00000000E+00  7.31600000E-01
  1.40000000E-02  0.00000000E+00  7.31600000E-01
  0.00000000E+00 -1.40000000E-02  9.14500000E-01
  1.40000000E-02 -1.40000000E-02  9.14500000E-01
  0.00000000E+00  0.00000000E+00  9.14500000E-01
  1.40000000E-02  0.00000000E+00  9.14500000E-01
[...]
CELL_DATA      80
SCALARS Liquid_Volume_Fraction float
LOOKUP_TABLE default
  1.000000000000000E+00
  1.000000000000000E+00
  1.000000000000000E+00
  1.000000000000000E+00
  1.000000000000000E+00
  1.000000000000000E+00
  1.000000000000000E+00
  1.000000000000000E+00
  1.000000000000000E+00
  1.000000000000000E+00
  1.000000000000000E+00
  1.000000000000000E+00
  1.000000000000000E+00
  1.000000000000000E+00
  1.000000000000000E+00
  1.000000000000000E+00
  1.000000000000000E+00
  1.000000000000000E+00
  1.000000000000000E+00
  1.000000000000000E+00
  1.000000000000000E+00
  1.000000000000000E+00
  1.000000000000000E+00
  1.000000000000000E+00
  1.000000000000000E+00
  1.000000000000000E+00
  1.000000000000000E+00
  1.000000000000000E+00
  1.000000000000000E+00
  1.000000000000000E+00
  1.000000000000000E+00
  1.000000000000000E+00
  1.000000000000000E+00
  1.000000000000000E+00
  1.000000000000000E+00
  1.000000000000000E+00
  1.000000000000000E+00
  1.000000000000000E+00
  1.000000000000000E+00
  1.000000000000000E+00
  1.000000000000000E+00
  1.000000000000000E+00
  1.000000000000000E+00
  1.000000000000000E+00
  1.000000000000000E+00
  1.000000000000000E+00
  1.000000000000000E+00
  1.000000000000000E+00
  1.000000000000000E+00
  1.000000000000000E+00
  1.000000000000000E+00
  1.000000000000000E+00
  1.000000000000000E+00
  1.000000000000000E+00
  1.000000000000000E+00
  1.000000000000000E+00
  1.000000000000000E+00
  1.000000000000000E+00
  1.000000000000000E+00
  1.000000000000000E+00
  1.000000000000000E+00
  1.000000000000000E+00
  1.000000000000000E+00
  1.000000000000000E+00
  1.000000000000000E+00
  1.000000000000000E+00
  1.000000000000000E+00
  1.000000000000000E+00
  1.000000000000000E+00
  1.000000000000000E+00
  1.000000000000000E+00
  1.000000000000000E+00
  1.000000000000000E+00
  1.000000000000000E+00
  1.000000000000000E+00
  1.000000000000000E+00
  1.000000000000000E+00
  1.000000000000000E+00
  1.000000000000000E+00
  1.000000000000000E+00
SCALARS Entrained_Volume_Fraction float
LOOKUP_TABLE default
  0.000000000000000E+00
  0.000000000000000E+00
  0.000000000000000E+00
  0.000000000000000E+00
  0.000000000000000E+00
  0.000000000000000E+00
  0.000000000000000E+00
  0.000000000000000E+00
  0.000000000000000E+00
  0.000000000000000E+00
  0.000000000000000E+00
  0.000000000000000E+00
  0.000000000000000E+00
  0.000000000000000E+00
  0.000000000000000E+00
  0.000000000000000E+00
  0.000000000000000E+00
  0.000000000000000E+00
  0.000000000000000E+00
  0.000000000000000E+00
  0.000000000000000E+00
  0.000000000000000E+00
  0.000000000000000E+00
  0.000000000000000E+00
  0.000000000000000E+00
  0.000000000000000E+00
  0.000000000000000E+00
  0.000000000000000E+00
  0.000000000000000E+00
  0.000000000000000E+00
  0.000000000000000E+00
  0.000000000000000E+00
  0.000000000000000E+00
  0.000000000000000E+00
  0.000000000000000E+00
  0.000000000000000E+00
  0.000000000000000E+00
  0.000000000000000E+00
  0.000000000000000E+00
  0.000000000000000E+00
  0.000000000000000E+00
  0.000000000000000E+00
  0.000000000000000E+00
  0.000000000000000E+00
  0.000000000000000E+00
  0.000000000000000E+00
  0.000000000000000E+00
  0.000000000000000E+00
  0.000000000000000E+00
  0.000000000000000E+00
  0.000000000000000E+00
  0.000000000000000E+00
  0.000000000000000E+00
  0.000000000000000E+00
  0.000000000000000E+00
  0.000000000000000E+00
  0.000000000000000E+00
  0.000000000000000E+00
  0.000000000000000E+00
  0.000000000000000E+00
  0.000000000000000E+00
  0.000000000000000E+00
  0.000000000000000E+00
  0.000000000000000E+00
  0.000000000000000E+00
  0.000000000000000E+00
  0.000000000000000E+00
  0.000000000000000E+00
  0.000000000000000E+00
  0.000000000000000E+00
  0.000000000000000E+00
  0.000000000000000E+00
  0.000000000000000E+00
  0.000000000000000E+00
  0.000000000000000E+00
  0.000000000000000E+00
  0.000000000000000E+00
  0.000000000000000E+00
  0.000000000000000E+00
  0.000000000000000E+00
SCALARS Vapor_Volume_Fraction float
LOOKUP_TABLE default
  0.000000000000000E+00
  0.000000000000000E+00
  0.000000000000000E+00
  0.000000000000000E+00
  0.000000000000000E+00
  0.000000000000000E+00
  0.000000000000000E+00
  0.000000000000000E+00
  0.000000000000000E+00
  0.000000000000000E+00
  0.000000000000000E+00
  0.000000000000000E+00
  0.000000000000000E+00
  0.000000000000000E+00
  0.000000000000000E+00
  0.000000000000000E+00
  0.000000000000000E+00
  0.000000000000000E+00
  0.000000000000000E+00
  0.000000000000000E+00
  0.000000000000000E+00
  0.000000000000000E+00
  0.000000000000000E+00
  0.000000000000000E+00
  0.000000000000000E+00
  0.000000000000000E+00
  0.000000000000000E+00
  0.000000000000000E+00
  0.000000000000000E+00
  0.000000000000000E+00
  0.000000000000000E+00
  0.000000000000000E+00
  0.000000000000000E+00
  0.000000000000000E+00
  0.000000000000000E+00
  0.000000000000000E+00
  0.000000000000000E+00
  0.000000000000000E+00
  0.000000000000000E+00
  0.000000000000000E+00
  0.000000000000000E+00
  0.000000000000000E+00
  0.000000000000000E+00
  0.000000000000000E+00
  0.000000000000000E+00
  0.000000000000000E+00
  0.000000000000000E+00
  0.000000000000000E+00
  0.000000000000000E+00
  0.000000000000000E+00
  0.000000000000000E+00
  0.000000000000000E+00
  0.000000000000000E+00
  0.000000000000000E+00
  0.000000000000000E+00
  0.000000000000000E+00
  0.000000000000000E+00
  0.000000000000000E+00
  0.000000000000000E+00
  0.000000000000000E+00
  0.000000000000000E+00
  0.000000000000000E+00
  0.000000000000000E+00
  0.000000000000000E+00
  0.000000000000000E+00
  0.000000000000000E+00
  0.000000000000000E+00
  0.000000000000000E+00
  0.000000000000000E+00
  0.000000000000000E+00
  0.000000000000000E+00
  0.000000000000000E+00
  0.000000000000000E+00
  0.000000000000000E+00
  0.000000000000000E+00
  0.000000000000000E+00
  0.000000000000000E+00
  0.000000000000000E+00
  0.000000000000000E+00
  0.000000000000000E+00
SCALARS Pressure float
LOOKUP_TABLE default
  1.652684046658616E+02
  1.652548399660525E+02
  1.652412902965661E+02
  1.652277556845972E+02
  1.652142361604896E+02
  1.652007317545046E+02
  1.651872424947225E+02
  1.651737684123310E+02
  1.651603095377073E+02
  1.651468659008704E+02
  1.651334375316842E+02
  1.651200244598848E+02
  1.651066267150852E+02
  1.650932443267739E+02
  1.650798773243120E+02
  1.650665257369287E+02
  1.650531895878686E+02
  1.650398689103415E+02
  1.650265637339097E+02
  1.650132740875604E+02
  1.652684046658615E+02
  1.652548399660525E+02
  1.652412902965661E+02
  1.652277556845971E+02
  1.652142361604896E+02
  1.652007317545046E+02
  1.651872424947225E+02
  1.651737684123310E+02
  1.651603095377072E+02
  1.651468659008704E+02
  1.651334375316842E+02
  1.651200244598848E+02
  1.651066267150851E+02
  1.650932443267739E+02
  1.650798773243120E+02
  1.650665257369287E+02
  1.650531895878686E+02
  1.650398689103415E+02
  1.650265637339097E+02
  1.650132740875604E+02
  1.652684046658615E+02
  1.652548399660525E+02
  1.652412902965661E+02
  1.652277556845971E+02
  1.652142361604896E+02
  1.652007317545046E+02
  1.651872424947225E+02
  1.651737684123310E+02
  1.651603095377072E+02
  1.651468659008704E+02
  1.651334375316842E+02
  1.651200244598848E+02
  1.651066267150851E+02
  1.650932443267739E+02
  1.650798773243120E+02
  1.650665257369287E+02
  1.650531895878686E+02
  1.650398689103415E+02
  1.650265637339097E+02
  1.650132740875604E+02
  1.652684046658615E+02
  1.652548399660525E+02
  1.652412902965661E+02
  1.652277556845971E+02
  1.652142361604896E+02
  1.652007317545046E+02
  1.651872424947225E+02
  1.651737684123310E+02
  1.651603095377072E+02
  1.651468659008704E+02
  1.651334375316842E+02
  1.651200244598848E+02
  1.651066267150851E+02
  1.650932443267739E+02
  1.650798773243120E+02
  1.650665257369287E+02
  1.650531895878686E+02
  1.650398689103415E+02
  1.650265637339097E+02
  1.650132740875604E+02
SCALARS Liquid_Enthalpy float
LOOKUP_TABLE default
  1.291565437077426E+03
  1.293987275552955E+03
  1.296408325466364E+03
  1.298828564587569E+03
  1.301247970299209E+03
  1.303666549212192E+03
  1.306084265285599E+03
  1.308501090933199E+03
  1.310917001378034E+03
  1.313331972055892E+03
  1.315745978219343E+03
  1.318158994820115E+03
  1.320570996462143E+03
  1.322981957378919E+03
  1.325391851420986E+03
  1.327800730397528E+03
  1.330208517934014E+03
  1.332615179482612E+03
  1.335020685030012E+03
  1.337425005565582E+03
  1.291565437077426E+03
  1.293987275552955E+03
  1.296408325466364E+03
  1.298828564587569E+03
  1.301247970299209E+03
  1.303666549212192E+03
  1.306084265285598E+03
  1.308501090933199E+03
  1.310917001378034E+03
  1.313331972055892E+03
  1.315745978219343E+03
  1.318158994820115E+03
  1.320570996462143E+03
  1.322981957378919E+03
  1.325391851420985E+03
  1.327800730397528E+03
  1.330208517934014E+03
  1.332615179482612E+03
  1.335020685030011E+03
  1.337425005565582E+03
  1.291565437077426E+03
  1.293987275552955E+03
  1.296408325466364E+03
  1.298828564587569E+03
  1.301247970299209E+03
  1.303666549212192E+03
  1.306084265285598E+03
  1.308501090933199E+03
  1.310917001378034E+03
  1.313331972055892E+03
  1.315745978219343E+03
  1.318158994820115E+03
  1.320570996462143E+03
  1.322981957378919E+03
  1.325391851420985E+03
  1.327800730397528E+03
  1.330208517934014E+03
  1.332615179482612E+03
  1.335020685030011E+03
  1.337425005565582E+03
  1.291565437077426E+03
  1.293987275552955E+03
  1.296408325466364E+03
  1.298828564587569E+03
  1.301247970299209E+03
  1.303666549212192E+03
  1.306084265285598E+03
  1.308501090933199E+03
  1.310917001378034E+03
  1.313331972055892E+03
  1.315745978219343E+03
  1.318158994820115E+03
  1.320570996462143E+03
  1.322981957378919E+03
  1.325391851420985E+03
  1.327800730397528E+03
  1.330208517934014E+03
  1.332615179482612E+03
  1.335020685030011E+03
  1.337425005565582E+03
SCALARS Vapor_Enthalpy float
LOOKUP_TABLE default
  2.568693940284235E+03
  2.568693940284235E+03
  2.568693940284235E+03
  2.568693940284235E+03
  2.568693940284235E+03
  2.568693940284235E+03
  2.568693940284235E+03
  2.568693940284235E+03
  2.568693940284235E+03
  2.568693940284235E+03
  2.568693940284235E+03
  2.568693940284235E+03
  2.568693940284235E+03
  2.568693940284235E+03
  2.568693940284235E+03
  2.568693940284235E+03
  2.568693940284235E+03
  2.568693940284235E+03
  2.568693940284235E+03
  2.568693940284235E+03
  2.568693940284235E+03
  2.568693940284235E+03
  2.568693940284235E+03
  2.568693940284235E+03
  2.568693940284235E+03
  2.568693940284235E+03
  2.568693940284235E+03
  2.568693940284235E+03
  2.568693940284235E+03
  2.568693940284235E+03
  2.568693940284235E+03
  2.568693940284235E+03
  2.568693940284235E+03
  2.568693940284235E+03
  2.568693940284235E+03
  2.568693940284235E+03
  2.568693940284235E+03
  2.568693940284235E+03
  2.568693940284235E+03
  2.568693940284235E+03
  2.568693940284235E+03
  2.568693940284235E+03
  2.568693940284235E+03
  2.568693940284235E+03
  2.568693940284235E+03
  2.568693940284235E+03
  2.568693940284235E+03
  2.568693940284235E+03
  2.568693940284235E+03
  2.568693940284235E+03
  2.568693940284235E+03
  2.568693940284235E+03
  2.568693940284235E+03
  2.568693940284235E+03
  2.568693940284235E+03
  2.568693940284235E+03
  2.568693940284235E+03
  2.568693940284235E+03
  2.568693940284235E+03
  2.568693940284235E+03
  2.568693940284235E+03
  2.568693940284235E+03
  2.568693940284235E+03
  2.568693940284235E+03
  2.568693940284235E+03
  2.568693940284235E+03
  2.568693940284235E+03
  2.568693940284235E+03
  2.568693940284235E+03
  2.568693940284235E+03
  2.568693940284235E+03
  2.568693940284235E+03
  2.568693940284235E+03
  2.568693940284235E+03
  2.568693940284235E+03
  2.568693940284235E+03
  2.568693940284235E+03
  2.568693940284235E+03
  2.568693940284235E+03
  2.568693940284235E+03
SCALARS Liquid_Density float
LOOKUP_TABLE default
  7.459468900865141E+02
  7.450592929232622E+02
  7.441697004635686E+02
  7.432781161894318E+02
  7.423845438630450E+02
  7.414889765792872E+02
  7.405914232723919E+02
  7.396918899275308E+02
  7.387903816445759E+02
  7.378869035958776E+02
  7.369814611747197E+02
  7.360740600414844E+02
  7.351647061438908E+02
  7.342534057283257E+02
  7.333401653474569E+02
  7.324249621436516E+02
  7.315078218717007E+02
  7.305887547007296E+02
  7.296677692653573E+02
  7.287448739988866E+02
  7.459468900865141E+02
  7.450592929232622E+02
  7.441697004635686E+02
  7.432781161894318E+02
  7.423845438630448E+02
  7.414889765792872E+02
  7.405914232723919E+02
  7.396918899275308E+02
  7.387903816445759E+02
  7.378869035958776E+02
  7.369814611747197E+02
  7.360740600414839E+02
  7.351647061438912E+02
  7.342534057283257E+02
  7.333401653474573E+02
  7.324249621436516E+02
  7.315078218717010E+02
  7.305887547007300E+02
  7.296677692653575E+02
  7.287448739988866E+02
  7.459468900865141E+02
  7.450592929232622E+02
  7.441697004635686E+02
  7.432781161894318E+02
  7.423845438630448E+02
  7.414889765792872E+02
  7.405914232723919E+02
  7.396918899275308E+02
  7.387903816445759E+02
  7.378869035958776E+02
  7.369814611747197E+02
  7.360740600414839E+02
  7.351647061438912E+02
  7.342534057283257E+02
  7.333401653474573E+02
  7.324249621436516E+02
  7.315078218717010E+02
  7.305887547007300E+02
  7.296677692653575E+02
  7.287448739988866E+02
  7.459468900865141E+02
  7.450592929232622E+02
  7.441697004635686E+02
  7.432781161894318E+02
  7.423845438630448E+02
  7.414889765792872E+02
  7.405914232723919E+02
  7.396918899275308E+02
  7.387903816445759E+02
  7.378869035958776E+02
  7.369814611747197E+02
  7.360740600414839E+02
  7.351647061438912E+02
  7.342534057283257E+02
  7.333401653474573E+02
  7.324249621436516E+02
  7.315078218717010E+02
  7.305887547007300E+02
  7.296677692653575E+02
  7.287448739988866E+02
SCALARS Vapor_Density float
LOOKUP_TABLE default
  1.132113675582275E+02
  1.132025396058286E+02
  1.131937115302370E+02
  1.131848833314679E+02
  1.131760550095361E+02
  1.131672265644566E+02
  1.131583979962447E+02
  1.131495693049151E+02
  1.131407404904829E+02
  1.131319115529632E+02
  1.131230824923709E+02
  1.131142533087211E+02
  1.131054240020287E+02
  1.130965945723088E+02
  1.130877650195765E+02
  1.130789353438466E+02
  1.130701055451343E+02
  1.130612756234545E+02
  1.130524455788223E+02
  1.130436154112527E+02
  1.132113675582275E+02
  1.132025396058286E+02
  1.131937115302370E+02
  1.131848833314679E+02
  1.131760550095361E+02
  1.131672265644566E+02
  1.131583979962447E+02
  1.131495693049151E+02
  1.131407404904829E+02
  1.131319115529632E+02
  1.131230824923709E+02
  1.131142533087211E+02
  1.131054240020287E+02
  1.130965945723088E+02
  1.130877650195765E+02
  1.130789353438466E+02
  1.130701055451343E+02
  1.130612756234545E+02
  1.130524455788223E+02
  1.130436154112527E+02
  1.132113675582275E+02
  1.132025396058286E+02
  1.131937115302370E+02
  1.131848833314679E+02
  1.131760550095361E+02
  1.131672265644566E+02
  1.131583979962447E+02
  1.131495693049151E+02
  1.131407404904829E+02
  1.131319115529632E+02
  1.131230824923709E+02
  1.131142533087211E+02
  1.131054240020287E+02
  1.130965945723088E+02
  1.130877650195765E+02
  1.130789353438466E+02
  1.130701055451343E+02
  1.130612756234545E+02
  1.130524455788223E+02
  1.130436154112527E+02
  1.132113675582275E+02
  1.132025396058286E+02
  1.131937115302370E+02
  1.131848833314679E+02
  1.131760550095361E+02
  1.131672265644566E+02
  1.131583979962447E+02
  1.131495693049151E+02
  1.131407404904829E+02
  1.131319115529632E+02
  1.131230824923709E+02
  1.131142533087211E+02
  1.131054240020287E+02
  1.130965945723088E+02
  1.130877650195765E+02
  1.130789353438466E+02
  1.130701055451343E+02
  1.130612756234545E+02
  1.130524455788223E+02
  1.130436154112527E+02
SCALARS Vapor_Generation float
LOOKUP_TABLE default
  0.000000000000000E+00
  0.000000000000000E+00
  0.000000000000000E+00
  0.000000000000000E+00
  0.000000000000000E+00
  0.000000000000000E+00
  0.000000000000000E+00
  0.000000000000000E+00
  0.000000000000000E+00
  0.000000000000000E+00
  0.000000000000000E+00
  0.000000000000000E+00
  0.000000000000000E+00
  0.000000000000000E+00
  0.000000000000000E+00
  0.000000000000000E+00
  0.000000000000000E+00
  0.000000000000000E+00
  0.000000000000000E+00
  0.000000000000000E+00
  0.000000000000000E+00
  0.000000000000000E+00
  0.000000000000000E+00
  0.000000000000000E+00
  0.000000000000000E+00
  0.000000000000000E+00
  0.000000000000000E+00
  0.000000000000000E+00
  0.000000000000000E+00
  0.000000000000000E+00
  0.000000000000000E+00
  0.000000000000000E+00
  0.000000000000000E+00
  0.000000000000000E+00
  0.000000000000000E+00
  0.000000000000000E+00
  0.000000000000000E+00
  0.000000000000000E+00
  0.000000000000000E+00
  0.000000000000000E+00
  0.000000000000000E+00
  0.000000000000000E+00
  0.000000000000000E+00
  0.000000000000000E+00
  0.000000000000000E+00
  0.000000000000000E+00
  0.000000000000000E+00
  0.000000000000000E+00
  0.000000000000000E+00
  0.000000000000000E+00
  0.000000000000000E+00
  0.000000000000000E+00
  0.000000000000000E+00
  0.000000000000000E+00
  0.000000000000000E+00
  0.000000000000000E+00
  0.000000000000000E+00
  0.000000000000000E+00
  0.000000000000000E+00
  0.000000000000000E+00
  0.000000000000000E+00
  0.000000000000000E+00
  0.000000000000000E+00
  0.000000000000000E+00
  0.000000000000000E+00
  0.000000000000000E+00
  0.000000000000000E+00
  0.000000000000000E+00
  0.000000000000000E+00
  0.000000000000000E+00
  0.000000000000000E+00
  0.000000000000000E+00
  0.000000000000000E+00
  0.000000000000000E+00
  0.000000000000000E+00
  0.000000000000000E+00
  0.000000000000000E+00
  0.000000000000000E+00
  0.000000000000000E+00
  0.000000000000000E+00
SCALARS Scalar_Cell_Flow_Area float
LOOKUP_TABLE default
  2.196945393999999E-05
  2.196945393999999E-05
  2.196945393999999E-05
  2.196945393999999E-05
  2.196945393999999E-05
  2.196945393999999E-05
  2.196945393999999E-05
  2.196945393999999E-05
  2.196945393999999E-05
  2.196945393999999E-05
  2.196945393999999E-05
  2.196945393999999E-05
  2.196945393999999E-05
  2.196945393999999E-05
  2.196945393999999E-05
  2.196945393999999E-05
  2.196945393999999E-05
  2.196945393999999E-05
  2.196945393999999E-05
  2.196945393999999E-05
  2.196945393999999E-05
  2.196945393999999E-05
  2.196945393999999E-05
  2.196945393999999E-05
  2.196945393999999E-05
  2.196945393999999E-05
  2.196945393999999E-05
  2.196945393999999E-05
  2.196945393999999E-05
  2.196945393999999E-05
  2.196945393999999E-05
  2.196945393999999E-05
  2.196945393999999E-05
  2.196945393999999E-05
  2.196945393999999E-05
  2.196945393999999E-05
  2.196945393999999E-05
  2.196945393999999E-05
  2.196945393999999E-05
  2.196945393999999E-05
  2.196945393999999E-05
  2.196945393999999E-05
  2.196945393999999E-05
  2.196945393999999E-05
  2.196945393999999E-05
  2.196945393999999E-05
  2.196945393999999E-05
  2.196945393999999E-05
  2.196945393999999E-05
  2.196945393999999E-05
  2.196945393999999E-05
  2.196945393999999E-05
  2.196945393999999E-05
  2.196945393999999E-05
  2.196945393999999E-05
  2.196945393999999E-05
  2.196945393999999E-05
  2.196945393999999E-05
  2.196945393999999E-05
  2.196945393999999E-05
  2.196945393999999E-05
  2.196945393999999E-05
  2.196945393999999E-05
  2.196945393999999E-05
  2.196945393999999E-05
  2.196945393999999E-05
  2.196945393999999E-05
  2.196945393999999E-05
  2.196945393999999E-05
  2.196945393999999E-05
  2.196945393999999E-05
  2.196945393999999E-05
  2.196945393999999E-05
  2.196945393999999E-05
  2.196945393999999E-05
  2.196945393999999E-05
  2.196945393999999E-05
  2.196945393999999E-05
  2.196945393999999E-05
  2.196945393999999E-05
SCALARS Channel_Wetted_Perimeter float
LOOKUP_TABLE default
  7.461282551999999E-03
  7.461282551999999E-03
  7.461282551999999E-03
  7.461282551999999E-03
  7.461282551999999E-03
  7.461282551999999E-03
  7.461282551999999E-03
  7.461282551999999E-03