# vtk DataFile Version 2.0
Rod Data
ASCII
DATASET UNSTRUCTURED_GRID
POINTS         176 double
 -2.37500000E-03  1.16250000E-02  0.00000000E+00
  2.37500000E-03  1.16250000E-02  0.00000000E+00
 -2.37500000E-03  1.63750000E-02  0.00000000E+00
  2.37500000E-03  1.63750000E-02  0.00000000E+00
 -2.37500000E-03  1.16250000E-02  4.57250000E-02
  2.37500000E-03  1.16250000E-02  4.57250000E-02
 -2.37500000E-03  1.63750000E-02  4.57250000E-02
  2.37500000E-03  1.63750000E-02  4.57250000E-02
 -2.37500000E-03  1.16250000E-02  4.57250000E-02
  2.37500000E-03  1.16250000E-02  4.57250000E-02
 -2.37500000E-03  1.63750000E-02  4.57250000E-02
  2.37500000E-03  1.63750000E-02  4.57250000E-02
 -2.37500000E-03  1.16250000E-02  1.82900000E-01
  2.37500000E-03  1.16250000E-02  1.82900000E-01
 -2.37500000E-03  1.63750000E-02  1.82900000E-01
  2.37500000E-03  1.63750000E-02  1.82900000E-01
 -2.37500000E-03  1.16250000E-02  1.82900000E-01
  2.37500000E-03  1.16250000E-02  1.82900000E-01
 -2.37500000E-03  1.63750000E-02  1.82900000E-01
  2.37500000E-03  1.63750000E-02  1.82900000E-01
 -2.37500000E-03  1.16250000E-02  3.65800000E-01
  2.37500000E-03  1.16250000E-02  3.65800000E-01
 -2.37500000E-03  1.63750000E-02  3.65800000E-01
  2.37500000E-03  1.63750000E-02  3.65800000E-01
 -2.37500000E-03  1.16250000E-02  3.65800000E-01
  2.37500000E-03  1.16250000E-02  3.65800000E-01
 -2.37500000E-03  1.63750000E-02  3.65800000E-01
  2.37500000E-03  1.63750000E-02  3.65800000E-01
 -2.37500000E-03  1.16250000E-02  5.48700000E-01
  2.37500000E-03  1.16250000E-02  5.48700000E-01
 -2.37500000E-03  1.63750000E-02  5.48700000E-01
  2.37500000E-03  1.63750000E-02  5.48700000E-01
 -2.37500000E-03  1.16250000E-02  5.48700000E-01
  2.37500000E-03  1.16250000E-02  5.48700000E-01
 -2.37500000E-03  1.63750000E-02  5.48700000E-01
  2.37500000E-03  1.63750000E-02  5.48700000E-01
 -2.37500000E-03  1.16250000E-02  7.31600000E-01
  2.37500000E-03  1.16250000E-02  7.31600000E-01
 -2.37500000E-03  1.63750000E-02  7.31600000E-01
  2.37500000E-03  1.63750000E-02  7.31600000E-01
 -2.37500000E-03  1.16250000E-02  7.31600000E-01
  2.37500000E-03  1.16250000E-02  7.31600000E-01
 -2.37500000E-03  1.63750000E-02  7.31600000E-01
  2.37500000E-03  1.63750000E-02  7.31600000E-01
 -2.37500000E-03  1.16250000E-02  9.14500000E-01
  2.37500000E-03  1.16250000E-02  9.14500000E-01
 -2.37500000E-03  1.63750000E-02  9.14500000E-01
  2.37500000E-03  1.63750000E-02  9.14500000E-01
 -2.37500000E-03  1.16250000E-02  9.14500000E-01
  2.37500000E-03  1.16250000E-02  9.14500000E-01
 -2.37500000E-03  1.63750000E-02  9.14500000E-01
  2.37500000E-03  1.63750000E-02  9.14500000E-01
 -2.37500000E-03  1.16250000E-02  1.09740000E+00
  2.37500000E-03  1.16250000E-02  1.09740000E+00
 -2.37500000E-03  1.63750000E-02  1.09740000E+00
  2.37500000E-03  1.63750000E-02  1.09740000E+00
 -2.37500000E-03  1.16250000E-02  1.09740000E+00
  2.37500000E-03  1.16250000E-02  1.09740000E+00
 -2.37500000E-03  1.63750000E-02  1.09740000E+00
  2.37500000E-03  1.63750000E-02  1.09740000E+00
 -2.37500000E-03  1.16250000E-02  1.28030000E+00
  2.37500000E-03  1.16250000E-02  1.28030000E+00
 -2.37500000E-03  1.63750000E-02  1.28030000E+00
  2.37500000E-03  1.63750000E-02  1.28030000E+00
 -2.37500000E-03  1.16250000E-02  1.28030000E+00
  2.37500000E-03  1.16250000E-02  1.28030000E+00
 -2.37500000E-03  1.63750000E-02  1.28030000E+00
  2.37500000E-03  1.63750000E-02  1.28030000E+00
 -2.37500000E-03  1.16250000E-02  1.46320000E+00
  2.37500000E-03  1.16250000E-02  1.46320000E+00
 -2.37500000E-03  1.63750000E-02  1.46320000E+00
  2.37500000E-03  1.63750000E-02  1.46320000E+00
 -2.37500000E-03  1.16250000E-02  1.46320000E+00
  2.37500000E-03  1.16250000E-02  1.46320000E+00
 -2.37500000E-03  1.63750000E-02  1.46320000E+00
  2.37500000E-03  1.63750000E-02  1.46320000E+00
 -2.37500000E-03  1.16250000E-02  1.64610000E+00
  2.37500000E-03  1.16250000E-02  1.64610000E+00
 -2.37500000E-03  1.63750000E-02  1.64610000E+00
  2.37500000E-03  1.63750000E-02  1.64610000E+00
 -2.37500000E-03  1.16250000E-02  1.64610000E+00
  2.37500000E-03  1.16250000E-02  1.64610000E+00
 -2.37500000E-03  1.63750000E-02  1.64610000E+00
  2.37500000E-03  1.63750000E-02  1.64610000E+00
 -2.37500000E-03  1.16250000E-02  1.82900000E+00
  2.37500000E-03  1.16250000E-02  1.82900000E+00
 -2.37500000E-03  1.63750000E-02  1.82900000E+00
  2.37500000E-03  1.63750000E-02  1.82900000E+00
 -2.37500000E-03  1.16250000E-02  1.82900000E+00
  2.37500000E-03  1.16250000E-02  1.82900000E+00
 -2.37500000E-03  1.63750000E-02  1.82900000E+00
  2.37500000E-03  1.63750000E-02  1.82900000E+00
 -2.37500000E-03  1.16250000E-02  2.01190000E+00
  2.37500000E-03  1.16250000E-02  2.01190000E+00
 -2.37500000E-03  1.63750000E-02  2.01190000E+00
  2.37500000E-03  1.63750000E-02  2.01190000E+00
 -2.37500000E-03  1.16250000E-02  2.01190000E+00
  2.37500000E-03  1.16250000E-02  2.01190000E+00
 -2.37500000E-03  1.63750000E-02  2.01190000E+00
  2.37500000E-03  1.63750000E-02  2.01190000E+00
 -2.37500000E-03  1.16250000E-02  2.19480000E+00
  2.37500000E-03  1.16250000E-02  2.19480000E+00
 -2.37500000E-03  1.63750000E-02  2.19480000E+00
  2.37500000E-03  1.63750000E-02  2.19480000E+00
 -2.37500000E-03  1.16250000E-02  2.19480000E+00
  2.37500000E-03  1.16250000E-02  2.19480000E+00
 -2.37500000E-03  1.63750000E-02  2.19480000E+00
  2.37500000E-03  1.63750000E-02  2.19480000E+00
 -2.37500000E-03  1.16250000E-02  2.37770000E+00
  2.37500000E-03  1.16250000E-02  2.37770000E+00
 -2.37500000E-03  1.63750000E-02  2.37770000E+00
  2.37500000E-03  1.63750000E-02  2.37770000E+00
 -2.37500000E-03  1.16250000E-02  2.37770000E+00
  2.37500000E-03  1.16250000E-02  2.37770000E+00
 -2.37500000E-03  1.63750000E-02  2.37770000E+00
  2.37500000E-03  1.63750000E-02  2.37770000E+00
 -2.37500000E-03  1.16250000E-02  2.56060000E+00
  2.37500000E-03  1.16250000E-02  2.56060000E+00
 -2.37500000E-03  1.63750000E-02  2.56060000E+00
  2.37500000E-03  1.63750000E-02  2.56060000E+00
 -2.37500000E-03  1.16250000E-02  2.56060000E+00
  2.37500000E-03  1.16250000E-02  2.56060000E+00
 -2.37500000E-03  1.63750000E-02  2.56060000E+00
  2.37500000E-03  1.63750000E-02  2.56060000E+00
 -2.37500000E-03  1.16250000E-02  2.74350000E+00
  2.37500000E-03  1.16250000E-02  2.74350000E+00
 -2.37500000E-03  1.63750000E-02  2.74350000E+00
  2.37500000E-03  1.63750000E-02  2.74350000E+00
 -2.37500000E-03  1.16250000E-02  2.74350000E+00
  2.37500000E-03  1.16250000E-02  2.74350000E+00
 -2.37500000E-03  1.63750000E-02  2.74350000E+00
  2.37500000E-03  1.63750000E-02  2.74350000E+00
 -2.37500000E-03  1.16250000E-02  2.92640000E+00
  2.37500000E-03  1.16250000E-02  2.92640000E+00
 -2.37500000E-03  1.63750000E-02  2.92640000E+00
  2.37500000E-03  1.63750000E-02  2.92640000E+00
 -2.37500000E-03  1.16250000E-02  2.92640000E+00
  2.37500000E-03  1.16250000E-02  2.92640000E+00
 -2.37500000E-03  1.63750000E-02  2.92640000E+00
  2.37500000E-03  1.63750000E-02  2.92640000E+00
 -2.37500000E-03  1.16250000E-02  3.10930000E+00
  2.37500000E-03  1.16250000E-02  3.10930000E+00
 -2.37500000E-03  1.63750000E-02  3.10930000E+00
  2.37500000E-03  1.63750000E-02  3.10930000E+00
 -2.37500000E-03  1.16250000E-02  3.10930000E+00
  2.37500000E-03  1.16250000E-02  3.10930000E+00
 -2.37500000E-03  1.63750000E-02  3.10930000E+00
  2.37500000E-03  1.63750000E-02  3.10930000E+00
 -2.37500000E-03  1.16250000E-02  3.29220000E+00
  2.37500000E-03  1.16250000E-02  3.29220000E+00
 -2.37500000E-03  1.63750000E-02  3.29220000E+00
  2.37500000E-03  1.63750000E-02  3.29220000E+00
 -2.37500000E-03  1.16250000E-02  3.29220000E+00
  2.37500000E-03  1.16250000E-02  3.29220000E+00
 -2.37500000E-03  1.63750000E-02  3.29220000E+00
  2.37500000E-03  1.63750000E-02  3.29220000E+00
 -2.37500000E-03  1.16250000E-02  3.47510000E+00
  2.37500000E-03  1.16250000E-02  3.47510000E+00
 -2.37500000E-03  1.63750000E-02  3.47510000E+00
  2.37500000E-03  1.63750000E-02  3.47510000E+00
 -2.37500000E-03  1.16250000E-02  3.47510000E+00
  2.37500000E-03  1.16250000E-02  3.47510000E+00
 -2.37500000E-03  1.63750000E-02  3.47510000E+00
  2.37500000E-03  1.63750000E-02  3.47510000E+00
 -2.37500000E-03  1.16250000E-02  3.61227500E+00
  2.37500000E-03  1.16250000E-02  3.61227500E+00
 -2.37500000E-03  1.63750000E-02  3.61227500E+00
  2.37500000E-03  1.63750000E-02  3.61227500E+00
 -2.37500000E-03  1.16250000E-02  3.61227500E+00
  2.37500000E-03  1.16250000E-02  3.61227500E+00
 -2.37500000E-03  1.63750000E-02  3.61227500E+00
  2.37500000E-03  1.63750000E-02  3.61227500E+00
 -2.37500000E-03  1.16250000E-02  3.65800000E+00
  2.37500000E-03  1.16250000E-02  3.65800000E+00
 -2.37500000E-03  1.63750000E-02  3.65800000E+00
  2.37500000E-03  1.63750000E-02  3.65800000E+00
CELLS        22       198
         8         0         1         2         3         4         5         6         7
         8         8         9        10        11        12        13        14        15
         8        16        17        18        19        20        21        22        23
         8        24        25        26        27        28        29        30        31
         8        32        33        34        35        36        37        38        39
         8        40        41        42        43        44        45        46        47
         8        48        49        50        51        52        53        54        55
         8        56        57        58        59        60        61        62        63
         8        64        65        66        67        68        69        70        71
         8        72        73        74        75        76        77        78        79
         8        80        81        82        83        84        85        86        87
         8        88        89        90        91        92        93        94        95
         8        96        97        98        99       100       101       102       103
         8       104       105       106       107       108       109       110       111
         8       112       113       114       115       116       117       118       119
         8       120       121       122       123       124       125       126       127
         8       128       129       130       131       132       133       134       135
         8       136       137       138       139       140       141       142       143
         8       144       145       146       147       148       149       150       151
         8       152       153       154       155       156       157       158       159
         8       160       161       162       163       164       165       166       167
         8       168       169       170       171       172       173       174       175
CELL_TYPES      22
11
11
11
11
11
11
11
11
11
11
11
11
11
11
11
11
11
11
11
11
11
11
CELL_DATA      22
SCALARS Max_Clad_Outside_Temp_C float
LOOKUP_TABLE default
  2.939228833535996E+02
  2.943654134383570E+02
  2.948076241870046E+02
  2.952495545983777E+02
  2.956911976511469E+02
  2.961325462255833E+02
  2.965707611675932E+02
  2.970046357424379E+02
  2.974381916924115E+02
  2.978714315535614E+02
  2.983043497278675E+02
  2.987369393366256E+02
  2.991691930674324E+02
  2.996011033843614E+02
  3.000326625985434E+02
  3.004638628969499E+02
  3.008900655788688E+02
  3.013137235684413E+02
  3.017369890360234E+02
  3.021598687536886E+02
  3.025823586718213E+02
  3.025823695050323E+02
SCALARS Max_Clad_Inside_Temp_C float
LOOKUP_TABLE default
  2.993365982133104E+02
  2.997772055843509E+02
  3.002174485009248E+02
  3.006573703925927E+02
  3.010969637832499E+02
  3.015362211000268E+02
  3.019723898100347E+02
  3.024041518985889E+02
  3.028355348389433E+02
  3.032665546846777E+02
  3.036972080560372E+02
  3.041274885696177E+02
  3.045573889018340E+02
  3.049869013090698E+02
  3.054160178051757E+02
  3.058447302349610E+02
  3.062686063281080E+02
  3.066897942794721E+02
  3.071105103875711E+02
  3.075307826696418E+02
  3.079506128956979E+02
  3.079506236698273E+02
SCALARS Max_Fuel_Surface_Temp_C float
LOOKUP_TABLE default
  3.263839221176342E+02
  3.268154651466783E+02
  3.272464373953144E+02
  3.276769023063179E+02
  3.281068504413096E+02
  3.285362722754914E+02
  3.289628046459359E+02
  3.293846472963363E+02
  3.298058285554827E+02
  3.302264307636481E+02
  3.306464616455735E+02
  3.310659175072318E+02
  3.314847912414946E+02
  3.319030743627024E+02
  3.323207577066102E+02
  3.327378317223578E+02
  3.331507647068655E+02
  3.335604229700175E+02
  3.339692375667138E+02
  3.343773405724989E+02
  3.347847624780166E+02
  3.347847729763906E+02
SCALARS Fuel_Centerline_Temp_C float
LOOKUP_TABLE default
  3.841969104339721E+02
  3.846052496235999E+02
  3.850125194856485E+02
  3.854188306696407E+02
  3.858241695386099E+02
  3.862285224070059E+02
  3.866304290033355E+02
  3.870270642160119E+02
  3.874223287824316E+02
  3.878164873555131E+02
  3.882095792158733E+02
  3.886016092277922E+02
  3.889925720866632E+02
  3.893824584943318E+02
  3.897712572879055E+02
  3.901589563293062E+02
  3.905439734362272E+02
  3.909246523572161E+02
  3.913035441308424E+02
  3.916810658186333E+02
  3.920573277035670E+02
  3.920573375087625E+02
SCALARS Max_Heat_Flux_kW/m**2 float
LOOKUP_TABLE default
  0.000000000000000E+00
  0.000000000000000E+00
  0.000000000000000E+00
  0.000000000000000E+00
  0.000000000000000E+00
  0.000000000000000E+00
  0.000000000000000E+00
  0.000000000000000E+00
  0.000000000000000E+00
  0.000000000000000E+00
  0.000000000000000E+00
  0.000000000000000E+00
  0.000000000000000E+00
  0.000000000000000E+00
  0.000000000000000E+00
  0.000000000000000E+00
  0.000000000000000E+00
  0.000000000000000E+00
  0.000000000000000E+00
  0.000000000000000E+00
  0.000000000000000E+00
  0.000000000000000E+00
