# vtk DataFile Version 2.0
Scalar Data
ASCII
DATASET UNSTRUCTURED_GRID
FIELD FieldData 2
Time 1 1 double
  1.000000000000001E+00
  dt 1 1 double
  1.000000000000000E-02
POINTS         640 double
 -1.40000000E-02 -1.40000000E-02  0.00000000E+00
  0.00000000E+00 -1.40000000E-02  0.00000000E+00
 -1.40000000E-02  0.00000000E+00  0.00000000E+00
  0.00000000E+00  0.00000000E+00  0.00000000E+00
 -1.40000000E-02 -1.40000000E-02  1.82900000E-01
  0.00000000E+00 -1.40000000E-02  1.82900000E-01
 -1.40000000E-02  0.00000000E+00  1.82900000E-01
  0.00000000E+00  0.00000000E+00  1.82900000E-01
 -1.40000000E-02 -1.40000000E-02  1.82900000E-01
  0.00000000E+00 -1.40000000E-02  1.82900000E-01
 -1.40000000E-02  0.00000000E+00  1.82900000E-01
  0.00000000E+00  0.00000000E+00  1.82900000E-01
 -1.40000000E-02 -1.40000000E-02  3.65800000E-01
  0.00000000E+00 -1.40000000E-02  3.65800000E-01
 -1.40000000E-02  0.00000000E+00  3.65800000E-01
  0.00000000E+00  0.00000000E+00  3.65800000E-01
 -1.40000000E-02 -1.40000000E-02  3.65800000E-01
  0.00000000E+00 -1.40000000E-02  3.65800000E-01
 -1.40000000E-02  0.00000000E+00  3.65800000E-01
  0.00000000E+00  0.00000000E+00  3.65800000E-01
 -1.40000000E-02 -1.40000000E-02  5.48700000E-01
  0.00000000E+00 -1.40000000E-02  5.48700000E-01
 -1.40000000E-02  0.00000000E+00  5.48700000E-01
  0.00000000E+00  0.00000000E+00  5.48700000E-01
 -1.40000000E-02 -1.40000000E-02  5.48700000E-01
  0.00000000E+00 -1.40000000E-02  5.48700000E-01
 -1.40000000E-02  0.00000000E+00  5.48700000E-01
  0.00000000E+00  0.00000000E+00  5.48700000E-01
 -1.40000000E-02 -1.40000000E-02  7.31600000E-01
  0.00000000E+00 -1.40000000E-02  7.31600000E-01
 -1.40000000E-02  0.00000000E+00  7.31600000E-01
  0.00000000E+00  0.00000000E+00  7.31600000E-01
 -1.40000000E-02 -1.40000000E-02  7.31600000E-01
  0.00000000E+00 -1.40000000E-02  7.31600000E-01
 -1.40000000E-02  0.00000000E+00  7.31600000E-01
  0.00000000E+00  0.00000000E+00  7.31600000E-01
 -1.40000000E-02 -1.40000000E-02  9.14500000E-01
  0.00000000E+00 -1.40000000E-02  9.14500000E-01
 -1.40000000E-02  0.00000000E+00  9.14500000E-01
  0.00000000E+00  0.00000000E+00  9.14500000E-01
 -1.40000000E-02 -1.40000000E-02  9.14500000E-01
  0.00000000E+00 -1.40000000E-02  9.14500000E-01
 -1.40000000E-02  0.00000000E+00  9.14500000E-01
  0.00000000E+00  0.00000000E+00  9.14500000E-01
 -1.40000000E-02 -1.40000000E-02  1.09740000E+00
  0.00000000E+00 -1.40000000E-02  1.09740000E+00
 -1.40000000E-02  0.00000000E+00  1.09740000E+00
  0.00000000E+00  0.00000000E+00  1.09740000E+00
 -1.40000000E-02 -1.40000000E-02  1.09740000E+00
  0.00000000E+00 -1.40000000E-02  1.09740000E+00
 -1.40000000E-02  0.00000000E+00  1.09740000E+00
  0.00000000E+00  0.00000000E+00  1.09740000E+00
 -1.40000000E-02 -1.40000000E-02  1.28030000E+00
  0.00000000E+00 -1.40000000E-02  1.28030000E+00
 -1.40000000E-02  0.00000000E+00  1.28030000E+00
  0.00000000E+00  0.00000000E+00  1.28030000E+00
 -1.40000000E-02 -1.40000000E-02  1.28030000E+00
  0.00000000E+00 -1.40000000E-02  1.28030000E+00
 -1.40000000E-02  0.00000000E+00  1.28030000E+00
  0.00000000E+00  0.00000000E+00  1.28030000E+00
 -1.40000000E-02 -1.40000000E-02  1.46320000E+00
  0.00000000E+00 -1.40000000E-02  1.46320000E+00
 -1.40000000E-02  0.00000000E+00  1.46320000E+00
  0.00000000E+00  0.00000000E+00  1.46320000E+00
 -1.40000000E-02 -1.40000000E-02  1.46320000E+00
  0.00000000E+00 -1.40000000E-02  1.46320000E+00
 -1.40000000E-02  0.00000000E+00  1.46320000E+00
  0.00000000E+00  0.00000000E+00  1.46320000E+00
 -1.40000000E-02 -1.40000000E-02  1.64610000E+00
  0.00000000E+00 -1.40000000E-02  1.64610000E+00
 -1.40000000E-02  0.00000000E+00  1.64610000E+00
  0.00000000E+00  0.00000000E+00  1.64610000E+00
 -1.40000000E-02 -1.40000000E-02  1.64610000E+00
  0.00000000E+00 -1.40000000E-02  1.64610000E+00
 -1.40000000E-02  0.00000000E+00  1.64610000E+00
  0.00000000E+00  0.00000000E+00  1.64610000E+00
 -1.40000000E-02 -1.40000000E-02  1.82900000E+00
  0.00000000E+00 -1.40000000E-02  1.82900000E+00
 -1.40000000E-02  0.00000000E+00  1.82900000E+00
  0.00000000E+00  0.00000000E+00  1.82900000E+00
 -1.40000000E-02 -1.40000000E-02  1.82900000E+00
  0.00000000E+00 -1.40000000E-02  1.82900000E+00
 -1.40000000E-02  0.00000000E+00  1.82900000E+00
  0.00000000E+00  0.00000000E+00  1.82900000E+00
 -1.40000000E-02 -1.40000000E-02  2.01190000E+00
  0.00000000E+00 -1.40000000E-02  2.01190000E+00
 -1.40000000E-02  0.00000000E+00  2.01190000E+00
  0.00000000E+00  0.00000000E+00  2.01190000E+00
 -1.40000000E-02 -1.40000000E-02  2.01190000E+00
  0.00000000E+00 -1.40000000E-02  2.01190000E+00
 -1.40000000E-02  0.00000000E+00  2.01190000E+00
  0.00000000E+00  0.00000000E+00  2.01190000E+00
 -1.40000000E-02 -1.40000000E-02  2.19480000E+00
  0.00000000E+00 -1.40000000E-02  2.19480000E+00
 -1.40000000E-02  0.00000000E+00  2.19480000E+00
  0.00000000E+00  0.00000000E+00  2.19480000E+00
 -1.40000000E-02 -1.40000000E-02  2.19480000E+00
  0.00000000E+00 -1.40000000E-02  2.19480000E+00
 -1.40000000E-02  0.00000000E+00  2.19480000E+00
  0.00000000E+00  0.00000000E+00  2.19480000E+00
 -1.40000000E-02 -1.40000000E-02  2.37770000E+00
  0.00000000E+00 -1.40000000E-02  2.37770000E+00
 -1.40000000E-02  0.00000000E+00  2.37770000E+00
  0.00000000E+00  0.00000000E+00  2.37770000E+00
 -1.40000000E-02 -1.40000000E-02  2.37770000E+00
  0.00000000E+00 -1.40000000E-02  2.37770000E+00
 -1.40000000E-02  0.00000000E+00  2.37770000E+00
  0.00000000E+00  0.00000000E+00  2.37770000E+00
 -1.40000000E-02 -1.40000000E-02  2.56060000E+00
  0.00000000E+00 -1.40000000E-02  2.56060000E+00
 -1.40000000E-02  0.00000000E+00  2.56060000E+00
  0.00000000E+00  0.00000000E+00  2.56060000E+00
 -1.40000000E-02 -1.40000000E-02  2.56060000E+00
  0.00000000E+00 -1.40000000E-02  2.56060000E+00
 -1.40000000E-02  0.00000000E+00  2.56060000E+00
  0.00000000E+00  0.00000000E+00  2.56060000E+00
 -1.40000000E-02 -1.40000000E-02  2.74350000E+00
  0.00000000E+00 -1.40000000E-02  2.74350000E+00
 -1.40000000E-02  0.00000000E+00  2.74350000E+00
  0.00000000E+00  0.00000000E+00  2.74350000E+00
 -1.40000000E-02 -1.40000000E-02  2.74350000E+00
  0.00000000E+00 -1.40000000E-02  2.74350000E+00
 -1.40000000E-02  0.00000000E+00  2.74350000E+00
  0.00000000E+00  0.00000000E+00  2.74350000E+00
 -1.40000000E-02 -1.40000000E-02  2.92640000E+00
  0.00000000E+00 -1.40000000E-02  2.92640000E+00
 -1.40000000E-02  0.00000000E+00  2.92640000E+00
  0.00000000E+00  0.00000000E+00  2.92640000E+00
 -1.40000000E-02 -1.40000000E-02  2.92640000E+00
  0.00000000E+00 -1.40000000E-02  2.92640000E+00
 -1.40000000E-02  0.00000000E+00  2.92640000E+00
  0.00000000E+00  0.00000000E+00  2.92640000E+00
 -1.40000000E-02 -1.40000000E-02  3.10930000E+00
  0.00000000E+00 -1.40000000E-02  3.10930000E+00
 -1.40000000E-02  0.00000000E+00  3.10930000E+00
  0.00000000E+00  0.00000000E+00  3.10930000E+00
 -1.40000000E-02 -1.40000000E-02  3.10930000E+00
  0.00000000E+00 -1.40000000E-02  3.10930000E+00
 -1.40000000E-02  0.00000000E+00  3.10930000E+00
  0.00000000E+00  0.00000000E+00  3.10930000E+00
 -1.40000000E-02 -1.40000000E-02  3.29220000E+00
  0.00000000E+00 -1.40000000E-02  3.29220000E+00
 -1.40000000E-02  0.00000000E+00  3.29220000E+00
  0.00000000E+00  0.00000000E+00  3.29220000E+00
 -1.40000000E-02 -1.40000000E-02  3.29220000E+00
  0.00000000E+00 -1.40000000E-02  3.29220000E+00
 -1.40000000E-02  0.00000000E+00  3.29220000E+00
  0.00000000E+00  0.00000000E+00  3.29220000E+00
 -1.40000000E-02 -1.40000000E-02  3.47510000E+00
  0.00000000E+00 -1.40000000E-02  3.47510000E+00
 -1.40000000E-02  0.00000000E+00  3.47510000E+00
  0.00000000E+00  0.00000000E+00  3.47510000E+00
 -1.40000000E-02 -1.40000000E-02  3.47510000E+00
  0.00000000E+00 -1.40000000E-02  3.47510000E+00
 -1.40000000E-02  0.00000000E+00  3.47510000E+00
  0.00000000E+00  0.00000000E+00  3.47510000E+00
 -1.40000000E-02 -1.40000000E-02  3.65800000E+00
  0.00000000E+00 -1.40000000E-02  3.65800000E+00
 -1.40000000E-02  0.00000000E+00  3.65800000E+00
  0.00000000E+00  0.00000000E+00  3.65800000E+00
  0.00000000E+00 -1.40000000E-02  0.00000000E+00
  1.40000000E-02 -1.40000000E-02  0.00000000E+00
  0.00000000E+00  0.00000000E+00  0.00000000E+00
  1.40000000E-02  0.00000000E+00  0.00000000E+00
  0.00000000E+00 -1.40000000E-02  1.82900000E-01
  1.40000000E-02 -1.40000000E-02  1.82900000E-01
  0.00000000E+00  0.00000000E+00  1.82900000E-01
  1.40000000E-02  0.00000000E+00  1.82900000E-01
  0.00000000E+00 -1.40000000E-02  1.82900000E-01
  1.40000000E-02 -1.40000000E-02  1.82900000E-01
  0.00000000E+00  0.00000000E+00  1.82900000E-01
  1.40000000E-02  0.00000000E+00  1.82900000E-01
  0.00000000E+00 -1.40000000E-02  3.65800000E-01
  1.40000000E-02 -1.40000000E-02  3.65800000E-01
  0.00000000E+00  0.00000000E+00  3.65800000E-01
  1.40000000E-02  0.00000000E+00  3.65800000E-01
  0.00000000E+00 -1.40000000E-02  3.65800000E-01
  1.40000000E-02 -1.40000000E-02  3.65800000E-01
  0.00000000E+00  0.00000000E+00  3.65800000E-01
  1.40000000E-02  0.00000000E+00  3.65800000E-01
  0.00000000E+00 -1.40000000E-02  5.48700000E-01
  1.40000000E-02 -1.40000000E-02  5.48700000E-01
  0.00000000E+00  0.00000000E+00  5.48700000E-01
  1.40000000E-02  0.00000000E+00  5.48700000E-01
  0.00000000E+00 -1.40000000E-02  5.48700000E-01
  1.40000000E-02 -1.40000000E-02  5.48700000E-01
  0.00000000E+00  0.00000000E+00  5.48700000E-01
  1.40000000E-02  0.00000000E+00  5.48700000E-01
  0.00000000E+00 -1.40000000E-02  7.31600000E-01
  1.40000000E-02 -1.40000000E-02  7.31600000E-01
  0.00000000E+00  0.00000000E+00  7.31600000E-01
  1.40000000E-02  0.00000000E+00  7.31600000E-01
  0.00000000E+00 -1.40000000E-02  7.31600000E-01
  1.40000000E-02 -1.40000000E-02  7.31600000E-01
  0.00000000E+00  0.00000000E+00  7.31600000E-01
  1.40000000E-02  0.00000000E+00  7.31600000E-01
  0.00000000E+00 -1.40000000E-02  9.14500000E-01
  1.40000000E-02 -1.40000000E-02  9.14500000E-01
  0.00000000E+00  0.00000000E+00  9.14500000E-01
  1.40000000E-02  0.00000000E+00  9.14500000E-01
[...]
CELL_DATA      80
SCALARS Liquid_Volume_Fraction float
LOOKUP_TABLE default
  1.000000000000000E+00
  1.000000000000000E+00
  1.000000000000000E+00
  1.000000000000000E+00
  1.000000000000000E+00
  1.000000000000000E+00
  1.000000000000000E+00
  1.000000000000000E+00
  1.000000000000000E+00
  1.000000000000000E+00
  1.000000000000000E+00
  1.000000000000000E+00
  1.000000000000000E+00
  1.000000000000000E+00
  1.000000000000000E+00
  1.000000000000000E+00
  1.000000000000000E+00
  1.000000000000000E+00
  1.000000000000000E+00
  1.000000000000000E+00
  1.000000000000000E+00
  1.000000000000000E+00
  1.000000000000000E+00
  1.000000000000000E+00
  1.000000000000000E+00
  1.000000000000000E+00
  1.000000000000000E+00
  1.000000000000000E+00
  1.000000000000000E+00
  1.000000000000000E+00
  1.000000000000000E+00
  1.000000000000000E+00
  1.000000000000000E+00
  1.000000000000000E+00
  1.000000000000000E+00
  1.000000000000000E+00
  1.000000000000000E+00
  1.000000000000000E+00
  1.000000000000000E+00
  1.000000000000000E+00
  1.000000000000000E+00
  1.000000000000000E+00
  1.000000000000000E+00
  1.000000000000000E+00
  1.000000000000000E+00
  1.000000000000000E+00
  1.000000000000000E+00
  1.000000000000000E+00
  1.000000000000000E+00
  1.000000000000000E+00
  1.000000000000000E+00
  1.000000000000000E+00
  1.000000000000000E+00
  1.000000000000000E+00
  1.000000000000000E+00
  1.000000000000000E+00
  1.000000000000000E+00
  1.000000000000000E+00
  1.000000000000000E+00
  1.000000000000000E+00
  1.000000000000000E+00
  1.000000000000000E+00
  1.000000000000000E+00
  1.000000000000000E+00
  1.000000000000000E+00
  1.000000000000000E+00
  1.000000000000000E+00
  1.000000000000000E+00
  1.000000000000000E+00
  1.000000000000000E+00
  1.000000000000000E+00
  1.000000000000000E+00
  1.000000000000000E+00
  1.000000000000000E+00
  1.000000000000000E+00
  1.000000000000000E+00
  1.000000000000000E+00
  1.000000000000000E+00
  1.000000000000000E+00
  1.000000000000000E+00
SCALARS Entrained_Volume_Fraction float
LOOKUP_TABLE default
  0.000000000000000E+00
  0.000000000000000E+00
  0.000000000000000E+00
  0.000000000000000E+00
  0.000000000000000E+00
  0.000000000000000E+00
  0.000000000000000E+00
  0.000000000000000E+00
  0.000000000000000E+00
  0.000000000000000E+00
  0.000000000000000E+00
  0.000000000000000E+00
  0.000000000000000E+00
  0.000000000000000E+00
  0.000000000000000E+00
  0.000000000000000E+00
  0.000000000000000E+00
  0.000000000000000E+00
  0.000000000000000E+00
  0.000000000000000E+00
  0.000000000000000E+00
  0.000000000000000E+00
  0.000000000000000E+00
  0.000000000000000E+00
  0.000000000000000E+00
  0.000000000000000E+00
  0.000000000000000E+00
  0.000000000000000E+00
  0.000000000000000E+00
  0.000000000000000E+00
  0.000000000000000E+00
  0.000000000000000E+00
  0.000000000000000E+00
  0.000000000000000E+00
  0.000000000000000E+00
  0.000000000000000E+00
  0.000000000000000E+00
  0.000000000000000E+00
  0.000000000000000E+00
  0.000000000000000E+00
  0.000000000000000E+00
  0.000000000000000E+00
  0.000000000000000E+00
  0.000000000000000E+00
  0.000000000000000E+00
  0.000000000000000E+00
  0.000000000000000E+00
  0.000000000000000E+00
  0.000000000000000E+00
  0.000000000000000E+00
  0.000000000000000E+00
  0.000000000000000E+00
  0.000000000000000E+00
  0.000000000000000E+00
  0.000000000000000E+00
  0.000000000000000E+00
  0.000000000000000E+00
  0.000000000000000E+00
  0.000000000000000E+00
  0.000000000000000E+00
  0.000000000000000E+00
  0.000000000000000E+00
  0.000000000000000E+00
  0.000000000000000E+00
  0.000000000000000E+00
  0.000000000000000E+00
  0.000000000000000E+00
  0.000000000000000E+00
  0.000000000000000E+00
  0.000000000000000E+00
  0.000000000000000E+00
  0.000000000000000E+00
  0.000000000000000E+00
  0.000000000000000E+00
  0.000000000000000E+00
  0.000000000000000E+00
  0.000000000000000E+00
  0.000000000000000E+00
  0.000000000000000E+00
  0.000000000000000E+00
SCALARS Vapor_Volume_Fraction float
LOOKUP_TABLE default
  0.000000000000000E+00
  0.000000000000000E+00
  0.000000000000000E+00
  0.000000000000000E+00
  0.000000000000000E+00
  0.000000000000000E+00
  0.000000000000000E+00
  0.000000000000000E+00
  0.000000000000000E+00
  0.000000000000000E+00
  0.000000000000000E+00
  0.000000000000000E+00
  0.000000000000000E+00
  0.000000000000000E+00
  0.000000000000000E+00
  0.000000000000000E+00
  0.000000000000000E+00
  0.000000000000000E+00
  0.000000000000000E+00
  0.000000000000000E+00
  0.000000000000000E+00
  0.000000000000000E+00
  0.000000000000000E+00
  0.000000000000000E+00
  0.000000000000000E+00
  0.000000000000000E+00
  0.000000000000000E+00
  0.000000000000000E+00
  0.000000000000000E+00
  0.000000000000000E+00
  0.000000000000000E+00
  0.000000000000000E+00
  0.000000000000000E+00
  0.000000000000000E+00
  0.000000000000000E+00
  0.000000000000000E+00
  0.000000000000000E+00
  0.000000000000000E+00
  0.000000000000000E+00
  0.000000000000000E+00
  0.000000000000000E+00
  0.000000000000000E+00
  0.000000000000000E+00
  0.000000000000000E+00
  0.000000000000000E+00
  0.000000000000000E+00
  0.000000000000000E+00
  0.000000000000000E+00
  0.000000000000000E+00
  0.000000000000000E+00
  0.000000000000000E+00
  0.000000000000000E+00
  0.000000000000000E+00
  0.000000000000000E+00
  0.000000000000000E+00
  0.000000000000000E+00
  0.000000000000000E+00
  0.000000000000000E+00
  0.000000000000000E+00
  0.000000000000000E+00
  0.000000000000000E+00
  0.000000000000000E+00
  0.000000000000000E+00
  0.000000000000000E+00
  0.000000000000000E+00
  0.000000000000000E+00
  0.000000000000000E+00
  0.000000000000000E+00
  0.000000000000000E+00
  0.000000000000000E+00
  0.000000000000000E+00
  0.000000000000000E+00
  0.000000000000000E+00
  0.000000000000000E+00
  0.000000000000000E+00
  0.000000000000000E+00
  0.000000000000000E+00
  0.000000000000000E+00
  0.000000000000000E+00
  0.000000000000000E+00
SCALARS Pressure float
LOOKUP_TABLE default
  1.652686304613432E+02
  1.652551800269871E+02
  1.652417331480102E+02
  1.652282894302095E+02
  1.652148486455242E+02
  1.652014105624463E+02
  1.651879749460161E+02
  1.651745415578877E+02
  1.651611101565019E+02
  1.651476804974225E+02
  1.651342523339051E+02
  1.651208254177752E+02
  1.651073995006958E+02
  1.650939743358757E+02
  1.650805496802464E+02
  1.650671252970706E+02
  1.650537009588807E+02
  1.650402764505728E+02
  1.650268515724215E+02
  1.650134261427506E+02
  1.652686304613404E+02
  1.652551800269845E+02
  1.652417331480077E+02
  1.652282894302072E+02
  1.652148486455220E+02
  1.652014105624441E+02
  1.651879749460136E+02
  1.651745415578850E+02
  1.651611101564992E+02
  1.651476804974204E+02
  1.651342523339031E+02
  1.651208254177732E+02
  1.651073995006936E+02
  1.650939743358734E+02
  1.650805496802443E+02
  1.650671252970690E+02
  1.650537009588794E+02
  1.650402764505714E+02
  1.650268515724203E+02
  1.650134261427500E+02
  1.652686304613404E+02
  1.652551800269845E+02
  1.652417331480077E+02
  1.652282894302072E+02
  1.652148486455220E+02
  1.652014105624441E+02
  1.651879749460136E+02
  1.651745415578850E+02
  1.651611101564992E+02
  1.651476804974204E+02
  1.651342523339031E+02
  1.651208254177732E+02
  1.651073995006936E+02
  1.650939743358734E+02
  1.650805496802443E+02
  1.650671252970690E+02
  1.650537009588794E+02
  1.650402764505714E+02
  1.650268515724203E+02
  1.650134261427500E+02
  1.652686304613404E+02
  1.652551800269845E+02
  1.652417331480077E+02
  1.652282894302072E+02
  1.652148486455220E+02
  1.652014105624441E+02
  1.651879749460136E+02
  1.651745415578850E+02
  1.651611101564992E+02
  1.651476804974204E+02
  1.651342523339031E+02
  1.651208254177732E+02
  1.651073995006936E+02
  1.650939743358734E+02
  1.650805496802443E+02
  1.650671252970690E+02
  1.650537009588794E+02
  1.650402764505714E+02
  1.650268515724203E+02
  1.650134261427500E+02
SCALARS Liquid_Enthalpy float
LOOKUP_TABLE default
  1.289886411871725E+03
  1.290594080075531E+03
  1.291267561414993E+03
  1.291906445468504E+03
  1.292510318871557E+03
  1.293078771246098E+03
  1.293611405274283E+03
  1.294107852563131E+03
  1.294567797070734E+03
  1.294991007673130E+03
  1.295377380776724E+03
  1.295726992595091E+03
  1.296040158795357E+03
  1.296317496852353E+03
  1.296559984039767E+03
  1.296769002159029E+03
  1.296946359564627E+03
  1.297094282360308E+03
  1.297215370001506E+03
  1.297312515540361E+03
  1.289886411871724E+03
  1.290594080075531E+03
  1.291267561414992E+03
  1.291906445468504E+03
  1.292510318871556E+03
  1.293078771246098E+03
  1.293611405274281E+03
  1.294107852563131E+03
  1.294567797070734E+03
  1.294991007673130E+03
  1.295377380776725E+03
  1.295726992595091E+03
  1.296040158795357E+03
  1.296317496852353E+03
  1.296559984039768E+03
  1.296769002159030E+03
  1.296946359564627E+03
  1.297094282360309E+03
  1.297215370001506E+03
  1.297312515540362E+03
  1.289886411871724E+03
  1.290594080075531E+03
  1.291267561414992E+03
  1.291906445468504E+03
  1.292510318871556E+03
  1.293078771246098E+03
  1.293611405274281E+03
  1.294107852563131E+03
  1.294567797070734E+03
  1.294991007673130E+03
  1.295377380776725E+03
  1.295726992595091E+03
  1.296040158795357E+03
  1.296317496852353E+03
  1.296559984039768E+03
  1.296769002159030E+03
  1.296946359564627E+03
  1.297094282360309E+03
  1.297215370001506E+03
  1.297312515540362E+03
  1.289886411871724E+03
  1.290594080075531E+03
  1.291267561414992E+03
  1.291906445468504E+03
  1.292510318871556E+03
  1.293078771246098E+03
  1.293611405274281E+03
  1.294107852563131E+03
  1.294567797070734E+03
  1.294991007673130E+03
  1.295377380776725E+03
  1.295726992595091E+03
  1.296040158795357E+03
  1.296317496852353E+03
  1.296559984039768E+03
  1.296769002159030E+03
  1.296946359564627E+03
  1.297094282360309E+03
  1.297215370001506E+03
  1.297312515540362E+03
SCALARS Vapor_Enthalpy float
LOOKUP_TABLE default
  2.568693940284235E+03
  2.568693940284235E+03
  2.568693940284235E+03
  2.568693940284235E+03
  2.568693940284235E+03
  2.568693940284235E+03
  2.568693940284235E+03
  2.568693940284235E+03
  2.568693940284235E+03
  2.568693940284235E+03
  2.568693940284235E+03
  2.568693940284235E+03
  2.568693940284235E+03
  2.568693940284235E+03
  2.568693940284235E+03
  2.568693940284235E+03
  2.568693940284235E+03
  2.568693940284235E+03
  2.568693940284235E+03
  2.568693940284235E+03
  2.568693940284235E+03
  2.568693940284235E+03
  2.568693940284235E+03
  2.568693940284235E+03
  2.568693940284235E+03
  2.568693940284235E+03
  2.568693940284235E+03
  2.568693940284235E+03
  2.568693940284235E+03
  2.568693940284235E+03
  2.568693940284235E+03
  2.568693940284235E+03
  2.568693940284235E+03
  2.568693940284235E+03
  2.568693940284235E+03
  2.568693940284235E+03
  2.568693940284235E+03
  2.568693940284235E+03
  2.568693940284235E+03
  2.568693940284235E+03
  2.568693940284235E+03
  2.568693940284235E+03
  2.568693940284235E+03
  2.568693940284235E+03
  2.568693940284235E+03
  2.568693940284235E+03
  2.568693940284235E+03
  2.568693940284235E+03
  2.568693940284235E+03
  2.568693940284235E+03
  2.568693940284235E+03
  2.568693940284235E+03
  2.568693940284235E+03
  2.568693940284235E+03
  2.568693940284235E+03
  2.568693940284235E+03
  2.568693940284235E+03
  2.568693940284235E+03
  2.568693940284235E+03
  2.568693940284235E+03
  2.568693940284235E+03
  2.568693940284235E+03
  2.568693940284235E+03
  2.568693940284235E+03
  2.568693940284235E+03
  2.568693940284235E+03
  2.568693940284235E+03
  2.568693940284235E+03
  2.568693940284235E+03
  2.568693940284235E+03
  2.568693940284235E+03
  2.568693940284235E+03
  2.568693940284235E+03
  2.568693940284235E+03
  2.568693940284235E+03
  2.568693940284235E+03
  2.568693940284235E+03
  2.568693940284235E+03
  2.568693940284235E+03
  2.568693940284235E+03
SCALARS Liquid_Density float
LOOKUP_TABLE default
  7.465592566599865E+02
  7.462988838638903E+02
  7.460507885285134E+02
  7.458151473266682E+02
  7.455921371176955E+02
  7.453819326922739E+02
  7.451847030229951E+02
  7.450006053835664E+02
  7.448297766838537E+02
  7.446723214381769E+02
  7.445282960325519E+02
  7.443976894308653E+02
  7.442804011661233E+02
  7.441762183368745E+02
  7.440847942184191E+02
  7.440056317736196E+02
  7.439380755478868E+02
  7.438813149462077E+02
  7.438344006481600E+02
  7.437962740697576E+02
  7.465592566599863E+02
  7.462988838638898E+02
  7.460507885285125E+02
  7.458151473266678E+02
  7.455921371176955E+02
  7.453819326922739E+02
  7.451847030229956E+02
  7.450006053835657E+02
  7.448297766838537E+02
  7.446723214381763E+02
  7.445282960325519E+02
  7.443976894308653E+02
  7.442804011661233E+02
  7.441762183368738E+02
  7.440847942184176E+02
  7.440056317736191E+02
  7.439380755478863E+02
  7.438813149462073E+02
  7.438344006481603E+02
  7.437962740697570E+02
  7.465592566599863E+02
  7.462988838638898E+02
  7.460507885285125E+02
  7.458151473266678E+02
  7.455921371176955E+02
  7.453819326922739E+02
  7.451847030229956E+02
  7.450006053835657E+02
  7.448297766838537E+02
  7.446723214381763E+02
  7.445282960325519E+02
  7.443976894308653E+02
  7.442804011661233E+02
  7.441762183368738E+02
  7.440847942184176E+02
  7.440056317736191E+02
  7.439380755478863E+02
  7.438813149462073E+02
  7.438344006481603E+02
  7.437962740697570E+02
  7.465592566599863E+02
  7.462988838638898E+02
  7.460507885285125E+02
  7.458151473266678E+02
  7.455921371176955E+02
  7.453819326922739E+02
  7.451847030229956E+02
  7.450006053835657E+02
  7.448297766838537E+02
  7.446723214381763E+02
  7.445282960325519E+02
  7.443976894308653E+02
  7.442804011661233E+02
  7.441762183368738E+02
  7.440847942184176E+02
  7.440056317736191E+02
  7.439380755478863E+02
  7.438813149462073E+02
  7.438344006481603E+02
  7.437962740697570E+02
SCALARS Vapor_Density float
LOOKUP_TABLE default
  1.132113675582275E+02
  1.132025396058286E+02
  1.131937115302370E+02
  1.131848833314679E+02
  1.131760550095361E+02
  1.131672265644566E+02
  1.131583979962447E+02
  1.131495693049151E+02
  1.131407404904829E+02
  1.131319115529632E+02
  1.131230824923709E+02
  1.131142533087211E+02
  1.131054240020287E+02
  1.130965945723088E+02
  1.130877650195765E+02
  1.130789353438466E+02
  1.130701055451343E+02
  1.130612756234545E+02
  1.130524455788223E+02
  1.130436154112527E+02
  1.132113675582275E+02
  1.132025396058286E+02
  1.131937115302370E+02
  1.131848833314679E+02
  1.131760550095361E+02
  1.131672265644566E+02
  1.131583979962447E+02
  1.131495693049151E+02
  1.131407404904829E+02
  1.131319115529632E+02
  1.131230824923709E+02
  1.131142533087211E+02
  1.131054240020287E+02
  1.130965945723088E+02
  1.130877650195765E+02
  1.130789353438466E+02
  1.130701055451343E+02
  1.130612756234545E+02
  1.130524455788223E+02
  1.130436154112527E+02
  1.132113675582275E+02
  1.132025396058286E+02
  1.131937115302370E+02
  1.131848833314679E+02
  1.131760550095361E+02
  1.131672265644566E+02
  1.131583979962447E+02
  1.131495693049151E+02
  1.131407404904829E+02
  1.131319115529632E+02
  1.131230824923709E+02
  1.131142533087211E+02
  1.131054240020287E+02
  1.130965945723088E+02
  1.130877650195765E+02
  1.130789353438466E+02
  1.130701055451343E+02
  1.130612756234545E+02
  1.130524455788223E+02
  1.130436154112527E+02
  1.132113675582275E+02
  1.132025396058286E+02
  1.131937115302370E+02
  1.131848833314679E+02
  1.131760550095361E+02
  1.131672265644566E+02
  1.131583979962447E+02
  1.131495693049151E+02
  1.131407404904829E+02
  1.131319115529632E+02
  1.131230824923709E+02
  1.131142533087211E+02
  1.131054240020287E+02
  1.130965945723088E+02
  1.130877650195765E+02
  1.130789353438466E+02
  1.130701055451343E+02
  1.130612756234545E+02
  1.130524455788223E+02
  1.130436154112527E+02
SCALARS Vapor_Generation float
LOOKUP_TABLE default
  0.000000000000000E+00
  0.000000000000000E+00
  0.000000000000000E+00
  0.000000000000000E+00
  0.000000000000000E+00
  0.000000000000000E+00
  0.000000000000000E+00
  0.000000000000000E+00
  0.000000000000000E+00
  0.000000000000000E+00
  0.000000000000000E+00
  0.000000000000000E+00
  0.000000000000000E+00
  0.000000000000000E+00
  0.000000000000000E+00
  0.000000000000000E+00
  0.000000000000000E+00
  0.000000000000000E+00
  0.000000000000000E+00
  0.000000000000000E+00
  0.000000000000000E+00
  0.000000000000000E+00
  0.000000000000000E+00
  0.000000000000000E+00
  0.000000000000000E+00
  0.000000000000000E+00
  0.000000000000000E+00
  0.000000000000000E+00
  0.000000000000000E+00
  0.000000000000000E+00
  0.000000000000000E+00
  0.000000000000000E+00
  0.000000000000000E+00
  0.000000000000000E+00
  0.000000000000000E+00
  0.000000000000000E+00
  0.000000000000000E+00
  0.000000000000000E+00
  0.000000000000000E+00
  0.000000000000000E+00
  0.000000000000000E+00
  0.000000000000000E+00
  0.000000000000000E+00
  0.000000000000000E+00
  0.000000000000000E+00
  0.000000000000000E+00
  0.000000000000000E+00
  0.000000000000000E+00
  0.000000000000000E+00
  0.000000000000000E+00
  0.000000000000000E+00
  0.000000000000000E+00
  0.000000000000000E+00
  0.000000000000000E+00
  0.000000000000000E+00
  0.000000000000000E+00
  0.000000000000000E+00
  0.000000000000000E+00
  0.000000000000000E+00
  0.000000000000000E+00
  0.000000000000000E+00
  0.000000000000000E+00
  0.000000000000000E+00
  0.000000000000000E+00
  0.000000000000000E+00
  0.000000000000000E+00
  0.000000000000000E+00
  0.000000000000000E+00
  0.000000000000000E+00
  0.000000000000000E+00
  0.000000000000000E+00
  0.000000000000000E+00
  0.000000000000000E+00
  0.000000000000000E+00
  0.000000000000000E+00
  0.000000000000000E+00
  0.000000000000000E+00
  0.000000000000000E+00
  0.000000000000000E+00
  0.000000000000000E+00
SCALARS Scalar_Cell_Flow_Area float
LOOKUP_TABLE default
  2.196945393999999E-05
  2.196945393999999E-05
  2.196945393999999E-05
  2.196945393999999E-05
  2.196945393999999E-05
  2.196945393999999E-05
  2.196945393999999E-05
  2.196945393999999E-05
  2.196945393999999E-05
  2.196945393999999E-05
  2.196945393999999E-05
  2.196945393999999E-05
  2.196945393999999E-05
  2.196945393999999E-05
  2.196945393999999E-05
  2.196945393999999E-05
  2.196945393999999E-05
  2.196945393999999E-05
  2.196945393999999E-05
  2.196945393999999E-05
  2.196945393999999E-05
  2.196945393999999E-05
  2.196945393999999E-05
  2.196945393999999E-05
  2.196945393999999E-05
  2.196945393999999E-05
  2.196945393999999E-05
  2.196945393999999E-05
  2.196945393999999E-05
  2.196945393999999E-05
  2.196945393999999E-05
  2.196945393999999E-05
  2.196945393999999E-05
  2.196945393999999E-05
  2.196945393999999E-05
  2.196945393999999E-05
  2.196945393999999E-05
  2.196945393999999E-05
  2.196945393999999E-05
  2.196945393999999E-05
  2.196945393999999E-05
  2.196945393999999E-05
  2.196945393999999E-05
  2.196945393999999E-05
  2.196945393999999E-05
  2.196945393999999E-05
  2.196945393999999E-05
  2.196945393999999E-05
  2.196945393999999E-05
  2.196945393999999E-05
  2.196945393999999E-05
  2.196945393999999E-05
  2.196945393999999E-05
  2.196945393999999E-05
  2.196945393999999E-05
  2.196945393999999E-05
  2.196945393999999E-05
  2.196945393999999E-05
  2.196945393999999E-05
  2.196945393999999E-05
  2.196945393999999E-05
  2.196945393999999E-05
  2.196945393999999E-05
  2.196945393999999E-05
  2.196945393999999E-05
  2.196945393999999E-05
  2.196945393999999E-05
  2.196945393999999E-05
  2.196945393999999E-05
  2.196945393999999E-05
  2.196945393999999E-05
  2.196945393999999E-05
  2.196945393999999E-05
  2.196945393999999E-05
  2.196945393999999E-05
  2.196945393999999E-05
  2.196945393999999E-05
  2.196945393999999E-05
  2.196945393999999E-05
  2.196945393999999E-05
SCALARS Channel_Wetted_Perimeter float
LOOKUP_TABLE default
  7.461282551999999E-03
  7.461282551999999E-03
  7.461282551999999E-03
  7.461282551999999E-03
  7.461282551999999E-03
  7.461282551999999E-03
  7.461282551999999E-03
  7.461282551999999E-03