# vtk DataFile Version 2.0
Rod Data
ASCII
DATASET UNSTRUCTURED_GRID
POINTS         176 double
 -2.37500000E-03  1.16250000E-02  0.00000000E+00
  2.37500000E-03  1.16250000E-02  0.00000000E+00
 -2.37500000E-03  1.63750000E-02  0.00000000E+00
  2.37500000E-03  1.63750000E-02  0.00000000E+00
 -2.37500000E-03  1.16250000E-02  4.57250000E-02
  2.37500000E-03  1.16250000E-02  4.57250000E-02
 -2.37500000E-03  1.63750000E-02  4.57250000E-02
  2.37500000E-03  1.63750000E-02  4.57250000E-02
 -2.37500000E-03  1.16250000E-02  4.57250000E-02
  2.37500000E-03  1.16250000E-02  4.57250000E-02
 -2.37500000E-03  1.63750000E-02  4.57250000E-02
  2.37500000E-03  1.63750000E-02  4.57250000E-02
 -2.37500000E-03  1.16250000E-02  1.82900000E-01
  2.37500000E-03  1.16250000E-02  1.82900000E-01
 -2.37500000E-03  1.63750000E-02  1.82900000E-01
  2.37500000E-03  1.63750000E-02  1.82900000E-01
 -2.37500000E-03  1.16250000E-02  1.82900000E-01
  2.37500000E-03  1.16250000E-02  1.82900000E-01
 -2.37500000E-03  1.63750000E-02  1.82900000E-01
  2.37500000E-03  1.63750000E-02  1.82900000E-01
 -2.37500000E-03  1.16250000E-02  3.65800000E-01
  2.37500000E-03  1.16250000E-02  3.65800000E-01
 -2.37500000E-03  1.63750000E-02  3.65800000E-01
  2.37500000E-03  1.63750000E-02  3.65800000E-01
 -2.37500000E-03  1.16250000E-02  3.65800000E-01
  2.37500000E-03  1.16250000E-02  3.65800000E-01
 -2.37500000E-03  1.63750000E-02  3.65800000E-01
  2.37500000E-03  1.63750000E-02  3.65800000E-01
 -2.37500000E-03  1.16250000E-02  5.48700000E-01
  2.37500000E-03  1.16250000E-02  5.48700000E-01
 -2.37500000E-03  1.63750000E-02  5.48700000E-01
  2.37500000E-03  1.63750000E-02  5.48700000E-01
 -2.37500000E-03  1.16250000E-02  5.48700000E-01
  2.37500000E-03  1.16250000E-02  5.48700000E-01
 -2.37500000E-03  1.63750000E-02  5.48700000E-01
  2.37500000E-03  1.63750000E-02  5.48700000E-01
 -2.37500000E-03  1.16250000E-02  7.31600000E-01
  2.37500000E-03  1.16250000E-02  7.31600000E-01
 -2.37500000E-03  1.63750000E-02  7.31600000E-01
  2.37500000E-03  1.63750000E-02  7.31600000E-01
 -2.37500000E-03  1.16250000E-02  7.31600000E-01
  2.37500000E-03  1.16250000E-02  7.31600000E-01
 -2.37500000E-03  1.63750000E-02  7.31600000E-01
  2.37500000E-03  1.63750000E-02  7.31600000E-01
 -2.37500000E-03  1.16250000E-02  9.14500000E-01
  2.37500000E-03  1.16250000E-02  9.14500000E-01
 -2.37500000E-03  1.63750000E-02  9.14500000E-01
  2.37500000E-03  1.63750000E-02  9.14500000E-01
 -2.37500000E-03  1.16250000E-02  9.14500000E-01
  2.37500000E-03  1.16250000E-02  9.14500000E-01
 -2.37500000E-03  1.63750000E-02  9.14500000E-01
  2.37500000E-03  1.63750000E-02  9.14500000E-01
 -2.37500000E-03  1.16250000E-02  1.09740000E+00
  2.37500000E-03  1.16250000E-02  1.09740000E+00
 -2.37500000E-03  1.63750000E-02  1.09740000E+00
  2.37500000E-03  1.63750000E-02  1.09740000E+00
 -2.37500000E-03  1.16250000E-02  1.09740000E+00
  2.37500000E-03  1.16250000E-02  1.09740000E+00
 -2.37500000E-03  1.63750000E-02  1.09740000E+00
  2.37500000E-03  1.63750000E-02  1.09740000E+00
 -2.37500000E-03  1.16250000E-02  1.28030000E+00
  2.37500000E-03  1.16250000E-02  1.28030000E+00
 -2.37500000E-03  1.63750000E-02  1.28030000E+00
  2.37500000E-03  1.63750000E-02  1.28030000E+00
 -2.37500000E-03  1.16250000E-02  1.28030000E+00
  2.37500000E-03  1.16250000E-02  1.28030000E+00
 -2.37500000E-03  1.63750000E-02  1.28030000E+00
  2.37500000E-03  1.63750000E-02  1.28030000E+00
 -2.37500000E-03  1.16250000E-02  1.46320000E+00
  2.37500000E-03  1.16250000E-02  1.46320000E+00
 -2.37500000E-03  1.63750000E-02  1.46320000E+00
  2.37500000E-03  1.63750000E-02  1.46320000E+00
 -2.37500000E-03  1.16250000E-02  1.46320000E+00
  2.37500000E-03  1.16250000E-02  1.46320000E+00
 -2.37500000E-03  1.63750000E-02  1.46320000E+00
  2.37500000E-03  1.63750000E-02  1.46320000E+00
 -2.37500000E-03  1.16250000E-02  1.64610000E+00
  2.37500000E-03  1.16250000E-02  1.64610000E+00
 -2.37500000E-03  1.63750000E-02  1.64610000E+00
  2.37500000E-03  1.63750000E-02  1.64610000E+00
 -2.37500000E-03  1.16250000E-02  1.64610000E+00
  2.37500000E-03  1.16250000E-02  1.64610000E+00
 -2.37500000E-03  1.63750000E-02  1.64610000E+00
  2.37500000E-03  1.63750000E-02  1.64610000E+00
 -2.37500000E-03  1.16250000E-02  1.82900000E+00
  2.37500000E-03  1.16250000E-02  1.82900000E+00
 -2.37500000E-03  1.63750000E-02  1.82900000E+00
  2.37500000E-03  1.63750000E-02  1.82900000E+00
 -2.37500000E-03  1.16250000E-02  1.82900000E+00
  2.37500000E-03  1.16250000E-02  1.82900000E+00
 -2.37500000E-03  1.63750000E-02  1.82900000E+00
  2.37500000E-03  1.63750000E-02  1.82900000E+00
 -2.37500000E-03  1.16250000E-02  2.01190000E+00
  2.37500000E-03  1.16250000E-02  2.01190000E+00
 -2.37500000E-03  1.63750000E-02  2.01190000E+00
  2.37500000E-03  1.63750000E-02  2.01190000E+00
 -2.37500000E-03  1.16250000E-02  2.01190000E+00
  2.37500000E-03  1.16250000E-02  2.01190000E+00
 -2.37500000E-03  1.63750000E-02  2.01190000E+00
  2.37500000E-03  1.63750000E-02  2.01190000E+00
 -2.37500000E-03  1.16250000E-02  2.19480000E+00
  2.37500000E-03  1.16250000E-02  2.19480000E+00
 -2.37500000E-03  1.63750000E-02  2.19480000E+00
  2.37500000E-03  1.63750000E-02  2.19480000E+00
 -2.37500000E-03  1.16250000E-02  2.19480000E+00
  2.37500000E-03  1.16250000E-02  2.19480000E+00
 -2.37500000E-03  1.63750000E-02  2.19480000E+00
  2.37500000E-03  1.63750000E-02  2.19480000E+00
 -2.37500000E-03  1.16250000E-02  2.37770000E+00
  2.37500000E-03  1.16250000E-02  2.37770000E+00
 -2.37500000E-03  1.63750000E-02  2.37770000E+00
  2.37500000E-03  1.63750000E-02  2.37770000E+00
 -2.37500000E-03  1.16250000E-02  2.37770000E+00
  2.37500000E-03  1.16250000E-02  2.37770000E+00
 -2.37500000E-03  1.63750000E-02  2.37770000E+00
  2.37500000E-03  1.63750000E-02  2.37770000E+00
 -2.37500000E-03  1.16250000E-02  2.56060000E+00
  2.37500000E-03  1.16250000E-02  2.56060000E+00
 -2.37500000E-03  1.63750000E-02  2.56060000E+00
  2.37500000E-03  1.63750000E-02  2.56060000E+00
 -2.37500000E-03  1.16250000E-02  2.56060000E+00
  2.37500000E-03  1.16250000E-02  2.56060000E+00
 -2.37500000E-03  1.63750000E-02  2.56060000E+00
  2.37500000E-03  1.63750000E-02  2.56060000E+00
 -2.37500000E-03  1.16250000E-02  2.74350000E+00
  2.37500000E-03  1.16250000E-02  2.74350000E+00
 -2.37500000E-03  1.63750000E-02  2.74350000E+00
  2.37500000E-03  1.63750000E-02  2.74350000E+00
 -2.37500000E-03  1.16250000E-02  2.74350000E+00
  2.37500000E-03  1.16250000E-02  2.74350000E+00
 -2.37500000E-03  1.63750000E-02  2.74350000E+00
  2.37500000E-03  1.63750000E-02  2.74350000E+00
 -2.37500000E-03  1.16250000E-02  2.92640000E+00
  2.37500000E-03  1.16250000E-02  2.92640000E+00
 -2.37500000E-03  1.63750000E-02  2.92640000E+00
  2.37500000E-03  1.63750000E-02  2.92640000E+00
 -2.37500000E-03  1.16250000E-02  2.92640000E+00
  2.37500000E-03  1.16250000E-02  2.92640000E+00
 -2.37500000E-03  1.63750000E-02  2.92640000E+00
  2.37500000E-03  1.63750000E-02  2.92640000E+00
 -2.37500000E-03  1.16250000E-02  3.10930000E+00
  2.37500000E-03  1.16250000E-02  3.10930000E+00
 -2.37500000E-03  1.63750000E-02  3.10930000E+00
  2.37500000E-03  1.63750000E-02  3.10930000E+00
 -2.37500000E-03  1.16250000E-02  3.10930000E+00
  2.37500000E-03  1.16250000E-02  3.10930000E+00
 -2.37500000E-03  1.63750000E-02  3.10930000E+00
  2.37500000E-03  1.63750000E-02  3.10930000E+00
 -2.37500000E-03  1.16250000E-02  3.29220000E+00
  2.37500000E-03  1.16250000E-02  3.29220000E+00
 -2.37500000E-03  1.63750000E-02  3.29220000E+00
  2.37500000E-03  1.63750000E-02  3.29220000E+00
 -2.37500000E-03  1.16250000E-02  3.29220000E+00
  2.37500000E-03  1.16250000E-02  3.29220000E+00
 -2.37500000E-03  1.63750000E-02  3.29220000E+00
  2.37500000E-03  1.63750000E-02  3.29220000E+00
 -2.37500000E-03  1.16250000E-02  3.47510000E+00
  2.37500000E-03  1.16250000E-02  3.47510000E+00
 -2.37500000E-03  1.63750000E-02  3.47510000E+00
  2.37500000E-03  1.63750000E-02  3.47510000E+00
 -2.37500000E-03  1.16250000E-02  3.47510000E+00
  2.37500000E-03  1.16250000E-02  3.47510000E+00
 -2.37500000E-03  1.63750000E-02  3.47510000E+00
  2.37500000E-03  1.63750000E-02  3.47510000E+00
 -2.37500000E-03  1.16250000E-02  3.61227500E+00
  2.37500000E-03  1.16250000E-02  3.61227500E+00
 -2.37500000E-03  1.63750000E-02  3.61227500E+00
  2.37500000E-03  1.63750000E-02  3.61227500E+00
 -2.37500000E-03  1.16250000E-02  3.61227500E+00
  2.37500000E-03  1.16250000E-02  3.61227500E+00
 -2.37500000E-03  1.63750000E-02  3.61227500E+00
  2.37500000E-03  1.63750000E-02  3.61227500E+00
 -2.37500000E-03  1.16250000E-02  3.65800000E+00
  2.37500000E-03  1.16250000E-02  3.65800000E+00
 -2.37500000E-03  1.63750000E-02  3.65800000E+00
  2.37500000E-03  1.63750000E-02  3.65800000E+00
CELLS        22       198
         8         0         1         2         3         4         5         6         7
         8         8         9        10        11        12        13        14        15
         8        16        17        18        19        20        21        22        23
         8        24        25        26        27        28        29        30        31
         8        32        33        34        35        36        37        38        39
         8        40        41        42        43        44        45        46        47
         8        48        49        50        51        52        53        54        55
         8        56        57        58        59        60        61        62        63
         8        64        65        66        67        68        69        70        71
         8        72        73        74        75        76        77        78        79
         8        80        81        82        83        84        85        86        87
         8        88        89        90        91        92        93        94        95
         8        96        97        98        99       100       101       102       103
         8       104       105       106       107       108       109       110       111
         8       112       113       114       115       116       117       118       119
         8       120       121       122       123       124       125       126       127
         8       128       129       130       131       132       133       134       135
         8       136       137       138       139       140       141       142       143
         8       144       145       146       147       148       149       150       151
         8       152       153       154       155       156       157       158       159
         8       160       161       162       163       164       165       166       167
         8       168       169       170       171       172       173       174       175
CELL_TYPES      22
11
11
11
11
11
11
11
11
11
11
11
11
11
11
11
11
11
11
11
11
11
11
CELL_DATA      22
SCALARS Max_Clad_Outside_Temp_C float
LOOKUP_TABLE default
  2.938391634101508E+02
  2.942702568982437E+02
  2.947006254823037E+02
  2.951303525444878E+02
  2.955594247906764E+02
  2.959878287970494E+02
  2.964137585856658E+02
  2.968341849529772E+02
  2.972538870978794E+02
  2.976728784424001E+02
  2.980911502027384E+02
  2.985086902400845E+02
  2.989254853739968E+02
  2.993415219580916E+02
  2.997567860745311E+02
  3.001712636142487E+02
  3.005834727149822E+02
  3.009899216549309E+02
  3.013954968639343E+02
  3.018002307690057E+02
  3.022041201897498E+02
  3.022041306149980E+02
SCALARS Max_Clad_Inside_Temp_C float
LOOKUP_TABLE default
  2.991385111095361E+02
  2.995655086116257E+02
  2.999917055837901E+02
  3.004171920698964E+02
  3.008419543713927E+02
  3.012659786710753E+02
  3.016875770907538E+02
  3.021036319798851E+02
  3.025188423832417E+02
  3.029332596615940E+02
  3.033468819483550E+02
  3.037596993215687E+02
  3.041716994377234E+02
  3.045828689543015E+02
  3.049931940166304E+02
  3.054026604604031E+02
  3.058099658930126E+02
  3.062115329407097E+02
  3.066120534192611E+02
  3.070116269980906E+02
  3.074102675152960E+02
  3.074102778234454E+02
SCALARS Max_Fuel_Surface_Temp_C float
LOOKUP_TABLE default
  3.256274098928440E+02
  3.260352849886891E+02
  3.264420213241806E+02
  3.268477381562857E+02
  3.272524202645487E+02
  3.276560523650033E+02
  3.280574342047352E+02
  3.284531782793314E+02
  3.288475199434407E+02
  3.292406961760926E+02
  3.296327393568884E+02
  3.300236508485978E+02
  3.304134228496712E+02
  3.308020439541906E+02
  3.311895010672969E+02
  3.315757802053318E+02
  3.319601846435071E+02
  3.323392339954326E+02
  3.327164305678384E+02
  3.330921979431479E+02
  3.334666334619442E+02
  3.334666432293042E+02
SCALARS Fuel_Centerline_Temp_C float
LOOKUP_TABLE default
  3.819151389858890E+02
  3.822749948791805E+02
  3.826329315111735E+02
  3.829891329321686E+02
  3.833435817558118E+02
  3.836962606853460E+02
  3.840468836946463E+02
  3.843920770842211E+02
  3.847344871251734E+02
  3.850748516045515E+02
  3.854132984570043E+02
  3.857498618751603E+02
  3.860845484471723E+02
  3.864173540259000E+02
  3.867482695508633E+02
  3.870772834828809E+02
  3.874043711366289E+02
  3.877278676482468E+02
  3.880477649757041E+02
  3.883650758427171E+02
  3.886801204895933E+02
  3.886801289256767E+02
SCALARS Max_Heat_Flux_kW/m**2 float
LOOKUP_TABLE default
  0.000000000000000E+00
  0.000000000000000E+00
  0.000000000000000E+00
  0.000000000000000E+00
  0.000000000000000E+00
  0.000000000000000E+00
  0.000000000000000E+00
  0.000000000000000E+00
  0.000000000000000E+00
  0.000000000000000E+00
  0.000000000000000E+00
  0.000000000000000E+00
  0.000000000000000E+00
  0.000000000000000E+00
  0.000000000000000E+00
  0.000000000000000E+00
  0.000000000000000E+00
  0.000000000000000E+00
  0.000000000000000E+00
  0.000000000000000E+00
  0.000000000000000E+00
  0.000000000000000E+00
