# vtk DataFile Version 2.0
Scalar Data
ASCII
DATASET UNSTRUCTURED_GRID
FIELD FieldData 2
Time 1 1 double
  1.199999999999979E+01
  dt 1 1 double
  1.000000000000000E-02
POINTS         640 double
 -1.40000000E-02 -1.40000000E-02  0.00000000E+00
  0.00000000E+00 -1.40000000E-02  0.00000000E+00
 -1.40000000E-02  0.00000000E+00  0.00000000E+00
  0.00000000E+00  0.00000000E+00  0.00000000E+00
 -1.40000000E-02 -1.40000000E-02  1.82900000E-01
  0.00000000E+00 -1.40000000E-02  1.82900000E-01
 -1.40000000E-02  0.00000000E+00  1.82900000E-01
  0.00000000E+00  0.00000000E+00  1.82900000E-01
 -1.40000000E-02 -1.40000000E-02  1.82900000E-01
  0.00000000E+00 -1.40000000E-02  1.82900000E-01
 -1.40000000E-02  0.00000000E+00  1.82900000E-01
  0.00000000E+00  0.00000000E+00  1.82900000E-01
 -1.40000000E-02 -1.40000000E-02  3.65800000E-01
  0.00000000E+00 -1.40000000E-02  3.65800000E-01
 -1.40000000E-02  0.00000000E+00  3.65800000E-01
  0.00000000E+00  0.00000000E+00  3.65800000E-01
 -1.40000000E-02 -1.40000000E-02  3.65800000E-01
  0.00000000E+00 -1.40000000E-02  3.65800000E-01
 -1.40000000E-02  0.00000000E+00  3.65800000E-01
  0.00000000E+00  0.00000000E+00  3.65800000E-01
 -1.40000000E-02 -1.40000000E-02  5.48700000E-01
  0.00000000E+00 -1.40000000E-02  5.48700000E-01
 -1.40000000E-02  0.00000000E+00  5.48700000E-01
  0.00000000E+00  0.00000000E+00  5.48700000E-01
 -1.40000000E-02 -1.40000000E-02  5.48700000E-01
  0.00000000E+00 -1.40000000E-02  5.48700000E-01
 -1.40000000E-02  0.00000000E+00  5.48700000E-01
  0.00000000E+00  0.00000000E+00  5.48700000E-01
 -1.40000000E-02 -1.40000000E-02  7.31600000E-01
  0.00000000E+00 -1.40000000E-02  7.31600000E-01
 -1.40000000E-02  0.00000000E+00  7.31600000E-01
  0.00000000E+00  0.00000000E+00  7.31600000E-01
 -1.40000000E-02 -1.40000000E-02  7.31600000E-01
  0.00000000E+00 -1.40000000E-02  7.31600000E-01
 -1.40000000E-02  0.00000000E+00  7.31600000E-01
  0.00000000E+00  0.00000000E+00  7.31600000E-01
 -1.40000000E-02 -1.40000000E-02  9.14500000E-01
  0.00000000E+00 -1.40000000E-02  9.14500000E-01
 -1.40000000E-02  0.00000000E+00  9.14500000E-01
  0.00000000E+00  0.00000000E+00  9.14500000E-01
 -1.40000000E-02 -1.40000000E-02  9.14500000E-01
  0.00000000E+00 -1.40000000E-02  9.14500000E-01
 -1.40000000E-02  0.00000000E+00  9.14500000E-01
  0.00000000E+00  0.00000000E+00  9.14500000E-01
 -1.40000000E-02 -1.40000000E-02  1.09740000E+00
  0.00000000E+00 -1.40000000E-02  1.09740000E+00
 -1.40000000E-02  0.00000000E+00  1.09740000E+00
  0.00000000E+00  0.00000000E+00  1.09740000E+00
 -1.40000000E-02 -1.40000000E-02  1.09740000E+00
  0.00000000E+00 -1.40000000E-02  1.09740000E+00
 -1.40000000E-02  0.00000000E+00  1.09740000E+00
  0.00000000E+00  0.00000000E+00  1.09740000E+00
 -1.40000000E-02 -1.40000000E-02  1.28030000E+00
  0.00000000E+00 -1.40000000E-02  1.28030000E+00
 -1.40000000E-02  0.00000000E+00  1.28030000E+00
  0.00000000E+00  0.00000000E+00  1.28030000E+00
 -1.40000000E-02 -1.40000000E-02  1.28030000E+00
  0.00000000E+00 -1.40000000E-02  1.28030000E+00
 -1.40000000E-02  0.00000000E+00  1.28030000E+00
  0.00000000E+00  0.00000000E+00  1.28030000E+00
 -1.40000000E-02 -1.40000000E-02  1.46320000E+00
  0.00000000E+00 -1.40000000E-02  1.46320000E+00
 -1.40000000E-02  0.00000000E+00  1.46320000E+00
  0.00000000E+00  0.00000000E+00  1.46320000E+00
 -1.40000000E-02 -1.40000000E-02  1.46320000E+00
  0.00000000E+00 -1.40000000E-02  1.46320000E+00
 -1.40000000E-02  0.00000000E+00  1.46320000E+00
  0.00000000E+00  0.00000000E+00  1.46320000E+00
 -1.40000000E-02 -1.40000000E-02  1.64610000E+00
  0.00000000E+00 -1.40000000E-02  1.64610000E+00
 -1.40000000E-02  0.00000000E+00  1.64610000E+00
  0.00000000E+00  0.00000000E+00  1.64610000E+00
 -1.40000000E-02 -1.40000000E-02  1.64610000E+00
  0.00000000E+00 -1.40000000E-02  1.64610000E+00
 -1.40000000E-02  0.00000000E+00  1.64610000E+00
  0.00000000E+00  0.00000000E+00  1.64610000E+00
 -1.40000000E-02 -1.40000000E-02  1.82900000E+00
  0.00000000E+00 -1.40000000E-02  1.82900000E+00
 -1.40000000E-02  0.00000000E+00  1.82900000E+00
  0.00000000E+00  0.00000000E+00  1.82900000E+00
 -1.40000000E-02 -1.40000000E-02  1.82900000E+00
  0.00000000E+00 -1.40000000E-02  1.82900000E+00
 -1.40000000E-02  0.00000000E+00  1.82900000E+00
  0.00000000E+00  0.00000000E+00  1.82900000E+00
 -1.40000000E-02 -1.40000000E-02  2.01190000E+00
  0.00000000E+00 -1.40000000E-02  2.01190000E+00
 -1.40000000E-02  0.00000000E+00  2.01190000E+00
  0.00000000E+00  0.00000000E+00  2.01190000E+00
 -1.40000000E-02 -1.40000000E-02  2.01190000E+00
  0.00000000E+00 -1.40000000E-02  2.01190000E+00
 -1.40000000E-02  0.00000000E+00  2.01190000E+00
  0.00000000E+00  0.00000000E+00  2.01190000E+00
 -1.40000000E-02 -1.40000000E-02  2.19480000E+00
  0.00000000E+00 -1.40000000E-02  2.19480000E+00
 -1.40000000E-02  0.00000000E+00  2.19480000E+00
  0.00000000E+00  0.00000000E+00  2.19480000E+00
 -1.40000000E-02 -1.40000000E-02  2.19480000E+00
  0.00000000E+00 -1.40000000E-02  2.19480000E+00
 -1.40000000E-02  0.00000000E+00  2.19480000E+00
  0.00000000E+00  0.00000000E+00  2.19480000E+00
 -1.40000000E-02 -1.40000000E-02  2.37770000E+00
  0.00000000E+00 -1.40000000E-02  2.37770000E+00
 -1.40000000E-02  0.00000000E+00  2.37770000E+00
  0.00000000E+00  0.00000000E+00  2.37770000E+00
 -1.40000000E-02 -1.40000000E-02  2.37770000E+00
  0.00000000E+00 -1.40000000E-02  2.37770000E+00
 -1.40000000E-02  0.00000000E+00  2.37770000E+00
  0.00000000E+00  0.00000000E+00  2.37770000E+00
 -1.40000000E-02 -1.40000000E-02  2.56060000E+00
  0.00000000E+00 -1.40000000E-02  2.56060000E+00
 -1.40000000E-02  0.00000000E+00  2.56060000E+00
  0.00000000E+00  0.00000000E+00  2.56060000E+00
 -1.40000000E-02 -1.40000000E-02  2.56060000E+00
  0.00000000E+00 -1.40000000E-02  2.56060000E+00
 -1.40000000E-02  0.00000000E+00  2.56060000E+00
  0.00000000E+00  0.00000000E+00  2.56060000E+00
 -1.40000000E-02 -1.40000000E-02  2.74350000E+00
  0.00000000E+00 -1.40000000E-02  2.74350000E+00
 -1.40000000E-02  0.00000000E+00  2.74350000E+00
  0.00000000E+00  0.00000000E+00  2.74350000E+00
 -1.40000000E-02 -1.40000000E-02  2.74350000E+00
  0.00000000E+00 -1.40000000E-02  2.74350000E+00
 -1.40000000E-02  0.00000000E+00  2.74350000E+00
  0.00000000E+00  0.00000000E+00  2.74350000E+00
 -1.40000000E-02 -1.40000000E-02  2.92640000E+00
  0.00000000E+00 -1.40000000E-02  2.92640000E+00
 -1.40000000E-02  0.00000000E+00  2.92640000E+00
  0.00000000E+00  0.00000000E+00  2.92640000E+00
 -1.40000000E-02 -1.40000000E-02  2.92640000E+00
  0.00000000E+00 -1.40000000E-02  2.92640000E+00
 -1.40000000E-02  0.00000000E+00  2.92640000E+00
  0.00000000E+00  0.00000000E+00  2.92640000E+00
 -1.40000000E-02 -1.40000000E-02  3.10930000E+00
  0.00000000E+00 -1.40000000E-02  3.10930000E+00
 -1.40000000E-02  0.00000000E+00  3.10930000E+00
  0.00000000E+00  0.00000000E+00  3.10930000E+00
 -1.40000000E-02 -1.40000000E-02  3.10930000E+00
  0.00000000E+00 -1.40000000E-02  3.10930000E+00
 -1.40000000E-02  0.00000000E+00  3.10930000E+00
  0.00000000E+00  0.00000000E+00  3.10930000E+00
 -1.40000000E-02 -1.40000000E-02  3.29220000E+00
  0.00000000E+00 -1.40000000E-02  3.29220000E+00
 -1.40000000E-02  0.00000000E+00  3.29220000E+00
  0.00000000E+00  0.00000000E+00  3.29220000E+00
 -1.40000000E-02 -1.40000000E-02  3.29220000E+00
  0.00000000E+00 -1.40000000E-02  3.29220000E+00
 -1.40000000E-02  0.00000000E+00  3.29220000E+00
  0.00000000E+00  0.00000000E+00  3.29220000E+00
 -1.40000000E-02 -1.40000000E-02  3.47510000E+00
  0.00000000E+00 -1.40000000E-02  3.47510000E+00
 -1.40000000E-02  0.00000000E+00  3.47510000E+00
  0.00000000E+00  0.00000000E+00  3.47510000E+00
 -1.40000000E-02 -1.40000000E-02  3.47510000E+00
  0.00000000E+00 -1.40000000E-02  3.47510000E+00
 -1.40000000E-02  0.00000000E+00  3.47510000E+00
  0.00000000E+00  0.00000000E+00  3.47510000E+00
 -1.40000000E-02 -1.40000000E-02  3.65800000E+00
  0.00000000E+00 -1.40000000E-02  3.65800000E+00
 -1.40000000E-02  0.00000000E+00  3.65800000E+00
  0.00000000E+00  0.00000000E+00  3.65800000E+00
  0.00000000E+00 -1.40000000E-02  0.00000000E+00
  1.40000000E-02 -1.40000000E-02  0.00000000E+00
  0.00000000E+00  0.00000000E+00  0.00000000E+00
  1.40000000E-02  0.00000000E+00  0.00000000E+00
  0.00000000E+00 -1.40000000E-02  1.82900000E-01
  1.40000000E-02 -1.40000000E-02  1.82900000E-01
  0.00000000E+00  0.00000000E+00  1.82900000E-01
  1.40000000E-02  0.00000000E+00  1.82900000E-01
  0.00000000E+00 -1.40000000E-02  1.82900000E-01
  1.40000000E-02 -1.40000000E-02  1.82900000E-01
  0.00000000E+00  0.00000000E+00  1.82900000E-01
  1.40000000E-02  0.00000000E+00  1.82900000E-01
  0.00000000E+00 -1.40000000E-02  3.65800000E-01
  1.40000000E-02 -1.40000000E-02  3.65800000E-01
  0.00000000E+00  0.00000000E+00  3.65800000E-01
  1.40000000E-02  0.00000000E+00  3.65800000E-01
  0.00000000E+00 -1.40000000E-02  3.65800000E-01
  1.40000000E-02 -1.40000000E-02  3.65800000E-01
  0.00000000E+00  0.00000000E+00  3.65800000E-01
  1.40000000E-02  0.00000000E+00  3.65800000E-01
  0.00000000E+00 -1.40000000E-02  5.48700000E-01
  1.40000000E-02 -1.40000000E-02  5.48700000E-01
  0.00000000E+00  0.00000000E+00  5.48700000E-01
  1.40000000E-02  0.00000000E+00  5.48700000E-01
  0.00000000E+00 -1.40000000E-02  5.48700000E-01
  1.40000000E-02 -1.40000000E-02  5.48700000E-01
  0.00000000E+00  0.00000000E+00  5.48700000E-01
  1.40000000E-02  0.00000000E+00  5.48700000E-01
  0.00000000E+00 -1.40000000E-02  7.31600000E-01
  1.40000000E-02 -1.40000000E-02  7.31600000E-01
  0.00000000E+00  0.00000000E+00  7.31600000E-01
  1.40000000E-02  0.00000000E+00  7.31600000E-01
  0.00000000E+00 -1.40000000E-02  7.31600000E-01
  1.40000000E-02 -1.40000000E-02  7.31600000E-01
  0.00000000E+00  0.00000000E+00  7.31600000E-01
  1.40000000E-02  0.00000000E+00  7.31600000E-01
  0.00000000E+00 -1.40000000E-02  9.14500000E-01
  1.40000000E-02 -1.40000000E-02  9.14500000E-01
  0.00000000E+00  0.00000000E+00  9.14500000E-01
  1.40000000E-02  0.00000000E+00  9.14500000E-01
[...]
CELL_DATA      80
SCALARS Liquid_Volume_Fraction float
LOOKUP_TABLE default
  1.000000000000000E+00
  1.000000000000000E+00
  1.000000000000000E+00
  1.000000000000000E+00
  1.000000000000000E+00
  1.000000000000000E+00
  1.000000000000000E+00
  1.000000000000000E+00
  1.000000000000000E+00
  1.000000000000000E+00
  1.000000000000000E+00
  1.000000000000000E+00
  1.000000000000000E+00
  1.000000000000000E+00
  1.000000000000000E+00
  1.000000000000000E+00
  1.000000000000000E+00
  1.000000000000000E+00
  1.000000000000000E+00
  1.000000000000000E+00
  1.000000000000000E+00
  1.000000000000000E+00
  1.000000000000000E+00
  1.000000000000000E+00
  1.000000000000000E+00
  1.000000000000000E+00
  1.000000000000000E+00
  1.000000000000000E+00
  1.000000000000000E+00
  1.000000000000000E+00
  1.000000000000000E+00
  1.000000000000000E+00
  1.000000000000000E+00
  1.000000000000000E+00
  1.000000000000000E+00
  1.000000000000000E+00
  1.000000000000000E+00
  1.000000000000000E+00
  1.000000000000000E+00
  1.000000000000000E+00
  1.000000000000000E+00
  1.000000000000000E+00
  1.000000000000000E+00
  1.000000000000000E+00
  1.000000000000000E+00
  1.000000000000000E+00
  1.000000000000000E+00
  1.000000000000000E+00
  1.000000000000000E+00
  1.000000000000000E+00
  1.000000000000000E+00
  1.000000000000000E+00
  1.000000000000000E+00
  1.000000000000000E+00
  1.000000000000000E+00
  1.000000000000000E+00
  1.000000000000000E+00
  1.000000000000000E+00
  1.000000000000000E+00
  1.000000000000000E+00
  1.000000000000000E+00
  1.000000000000000E+00
  1.000000000000000E+00
  1.000000000000000E+00
  1.000000000000000E+00
  1.000000000000000E+00
  1.000000000000000E+00
  1.000000000000000E+00
  1.000000000000000E+00
  1.000000000000000E+00
  1.000000000000000E+00
  1.000000000000000E+00
  1.000000000000000E+00
  1.000000000000000E+00
  1.000000000000000E+00
  1.000000000000000E+00
  1.000000000000000E+00
  1.000000000000000E+00
  1.000000000000000E+00
  1.000000000000000E+00
SCALARS Entrained_Volume_Fraction float
LOOKUP_TABLE default
  0.000000000000000E+00
  0.000000000000000E+00
  0.000000000000000E+00
  0.000000000000000E+00
  0.000000000000000E+00
  0.000000000000000E+00
  0.000000000000000E+00
  0.000000000000000E+00
  0.000000000000000E+00
  0.000000000000000E+00
  0.000000000000000E+00
  0.000000000000000E+00
  0.000000000000000E+00
  0.000000000000000E+00
  0.000000000000000E+00
  0.000000000000000E+00
  0.000000000000000E+00
  0.000000000000000E+00
  0.000000000000000E+00
  0.000000000000000E+00
  0.000000000000000E+00
  0.000000000000000E+00
  0.000000000000000E+00
  0.000000000000000E+00
  0.000000000000000E+00
  0.000000000000000E+00
  0.000000000000000E+00
  0.000000000000000E+00
  0.000000000000000E+00
  0.000000000000000E+00
  0.000000000000000E+00
  0.000000000000000E+00
  0.000000000000000E+00
  0.000000000000000E+00
  0.000000000000000E+00
  0.000000000000000E+00
  0.000000000000000E+00
  0.000000000000000E+00
  0.000000000000000E+00
  0.000000000000000E+00
  0.000000000000000E+00
  0.000000000000000E+00
  0.000000000000000E+00
  0.000000000000000E+00
  0.000000000000000E+00
  0.000000000000000E+00
  0.000000000000000E+00
  0.000000000000000E+00
  0.000000000000000E+00
  0.000000000000000E+00
  0.000000000000000E+00
  0.000000000000000E+00
  0.000000000000000E+00
  0.000000000000000E+00
  0.000000000000000E+00
  0.000000000000000E+00
  0.000000000000000E+00
  0.000000000000000E+00
  0.000000000000000E+00
  0.000000000000000E+00
  0.000000000000000E+00
  0.000000000000000E+00
  0.000000000000000E+00
  0.000000000000000E+00
  0.000000000000000E+00
  0.000000000000000E+00
  0.000000000000000E+00
  0.000000000000000E+00
  0.000000000000000E+00
  0.000000000000000E+00
  0.000000000000000E+00
  0.000000000000000E+00
  0.000000000000000E+00
  0.000000000000000E+00
  0.000000000000000E+00
  0.000000000000000E+00
  0.000000000000000E+00
  0.000000000000000E+00
  0.000000000000000E+00
  0.000000000000000E+00
SCALARS Vapor_Volume_Fraction float
LOOKUP_TABLE default
  0.000000000000000E+00
  0.000000000000000E+00
  0.000000000000000E+00
  0.000000000000000E+00
  0.000000000000000E+00
  0.000000000000000E+00
  0.000000000000000E+00
  0.000000000000000E+00
  0.000000000000000E+00
  0.000000000000000E+00
  0.000000000000000E+00
  0.000000000000000E+00
  0.000000000000000E+00
  0.000000000000000E+00
  0.000000000000000E+00
  0.000000000000000E+00
  0.000000000000000E+00
  0.000000000000000E+00
  0.000000000000000E+00
  0.000000000000000E+00
  0.000000000000000E+00
  0.000000000000000E+00
  0.000000000000000E+00
  0.000000000000000E+00
  0.000000000000000E+00
  0.000000000000000E+00
  0.000000000000000E+00
  0.000000000000000E+00
  0.000000000000000E+00
  0.000000000000000E+00
  0.000000000000000E+00
  0.000000000000000E+00
  0.000000000000000E+00
  0.000000000000000E+00
  0.000000000000000E+00
  0.000000000000000E+00
  0.000000000000000E+00
  0.000000000000000E+00
  0.000000000000000E+00
  0.000000000000000E+00
  0.000000000000000E+00
  0.000000000000000E+00
  0.000000000000000E+00
  0.000000000000000E+00
  0.000000000000000E+00
  0.000000000000000E+00
  0.000000000000000E+00
  0.000000000000000E+00
  0.000000000000000E+00
  0.000000000000000E+00
  0.000000000000000E+00
  0.000000000000000E+00
  0.000000000000000E+00
  0.000000000000000E+00
  0.000000000000000E+00
  0.000000000000000E+00
  0.000000000000000E+00
  0.000000000000000E+00
  0.000000000000000E+00
  0.000000000000000E+00
  0.000000000000000E+00
  0.000000000000000E+00
  0.000000000000000E+00
  0.000000000000000E+00
  0.000000000000000E+00
  0.000000000000000E+00
  0.000000000000000E+00
  0.000000000000000E+00
  0.000000000000000E+00
  0.000000000000000E+00
  0.000000000000000E+00
  0.000000000000000E+00
  0.000000000000000E+00
  0.000000000000000E+00
  0.000000000000000E+00
  0.000000000000000E+00
  0.000000000000000E+00
  0.000000000000000E+00
  0.000000000000000E+00
  0.000000000000000E+00
SCALARS Pressure float
LOOKUP_TABLE default
  1.652684033235666E+02
  1.652548404830197E+02
  1.652412925412156E+02
  1.652277595061184E+02
  1.652142414011634E+02
  1.652007382495178E+02
  1.651872500703632E+02
  1.651737768875522E+02
  1.651603187244559E+02
  1.651468756034470E+02
  1.651334475464576E+02
  1.651200345750597E+02
  1.651066367104846E+02
  1.650932539736250E+02
  1.650798863850329E+02
  1.650665339649133E+02
  1.650531967240103E+02
  1.650398746865914E+02
  1.650265678738214E+02
  1.650132763053240E+02
  1.652684033235667E+02
  1.652548404830199E+02
  1.652412925412158E+02
  1.652277595061186E+02
  1.652142414011636E+02
  1.652007382495179E+02
  1.651872500703634E+02
  1.651737768875523E+02
  1.651603187244560E+02
  1.651468756034472E+02
  1.651334475464578E+02
  1.651200345750599E+02
  1.651066367104847E+02
  1.650932539736252E+02
  1.650798863850330E+02
  1.650665339649134E+02
  1.650531967240104E+02
  1.650398746865915E+02
  1.650265678738214E+02
  1.650132763053240E+02
  1.652684033235667E+02
  1.652548404830199E+02
  1.652412925412158E+02
  1.652277595061186E+02
  1.652142414011636E+02
  1.652007382495179E+02
  1.651872500703634E+02
  1.651737768875523E+02
  1.651603187244560E+02
  1.651468756034472E+02
  1.651334475464578E+02
  1.651200345750599E+02
  1.651066367104847E+02
  1.650932539736252E+02
  1.650798863850330E+02
  1.650665339649134E+02
  1.650531967240104E+02
  1.650398746865915E+02
  1.650265678738214E+02
  1.650132763053240E+02
  1.652684033235667E+02
  1.652548404830199E+02
  1.652412925412158E+02
  1.652277595061186E+02
  1.652142414011636E+02
  1.652007382495179E+02
  1.651872500703634E+02
  1.651737768875523E+02
  1.651603187244560E+02
  1.651468756034472E+02
  1.651334475464578E+02
  1.651200345750599E+02
  1.651066367104847E+02
  1.650932539736252E+02
  1.650798863850330E+02
  1.650665339649134E+02
  1.650531967240104E+02
  1.650398746865915E+02
  1.650265678738214E+02
  1.650132763053240E+02
SCALARS Liquid_Enthalpy float
LOOKUP_TABLE default
  1.291538215606378E+03
  1.293931633180671E+03
  1.296323202993184E+03
  1.298712880099994E+03
  1.301100618946664E+03
  1.303486425670014E+03
  1.305870241131898E+03
  1.308252007175243E+03
  1.310631673766394E+03
  1.313009191922732E+03
  1.315384512638196E+03
  1.317757586568313E+03
  1.320128363908294E+03
  1.322496794337578E+03
  1.324862826992177E+03
  1.327226531843610E+03
  1.329587804466199E+03
  1.331946571958929E+03
  1.334302774391812E+03
  1.336656355108202E+03
  1.291538215606378E+03
  1.293931633180671E+03
  1.296323202993185E+03
  1.298712880099994E+03
  1.301100618946665E+03
  1.303486425670014E+03
  1.305870241131899E+03
  1.308252007175243E+03
  1.310631673766394E+03
  1.313009191922732E+03
  1.315384512638196E+03
  1.317757586568314E+03
  1.320128363908294E+03
  1.322496794337578E+03
  1.324862826992177E+03
  1.327226531843610E+03
  1.329587804466199E+03
  1.331946571958929E+03
  1.334302774391812E+03
  1.336656355108202E+03
  1.291538215606378E+03
  1.293931633180671E+03
  1.296323202993185E+03
  1.298712880099994E+03
  1.301100618946665E+03
  1.303486425670014E+03
  1.305870241131899E+03
  1.308252007175243E+03
  1.310631673766394E+03
  1.313009191922732E+03
  1.315384512638196E+03
  1.317757586568314E+03
  1.320128363908294E+03
  1.322496794337578E+03
  1.324862826992177E+03
  1.327226531843610E+03
  1.329587804466199E+03
  1.331946571958929E+03
  1.334302774391812E+03
  1.336656355108202E+03
  1.291538215606378E+03
  1.293931633180671E+03
  1.296323202993185E+03
  1.298712880099994E+03
  1.301100618946665E+03
  1.303486425670014E+03
  1.305870241131899E+03
  1.308252007175243E+03
  1.310631673766394E+03
  1.313009191922732E+03
  1.315384512638196E+03
  1.317757586568314E+03
  1.320128363908294E+03
  1.322496794337578E+03
  1.324862826992177E+03
  1.327226531843610E+03
  1.329587804466199E+03
  1.331946571958929E+03
  1.334302774391812E+03
  1.336656355108202E+03
SCALARS Vapor_Enthalpy float
LOOKUP_TABLE default
  2.568693940284235E+03
  2.568693940284235E+03
  2.568693940284235E+03
  2.568693940284235E+03
  2.568693940284235E+03
  2.568693940284235E+03
  2.568693940284235E+03
  2.568693940284235E+03
  2.568693940284235E+03
  2.568693940284235E+03
  2.568693940284235E+03
  2.568693940284235E+03
  2.568693940284235E+03
  2.568693940284235E+03
  2.568693940284235E+03
  2.568693940284235E+03
  2.568693940284235E+03
  2.568693940284235E+03
  2.568693940284235E+03
  2.568693940284235E+03
  2.568693940284235E+03
  2.568693940284235E+03
  2.568693940284235E+03
  2.568693940284235E+03
  2.568693940284235E+03
  2.568693940284235E+03
  2.568693940284235E+03
  2.568693940284235E+03
  2.568693940284235E+03
  2.568693940284235E+03
  2.568693940284235E+03
  2.568693940284235E+03
  2.568693940284235E+03
  2.568693940284235E+03
  2.568693940284235E+03
  2.568693940284235E+03
  2.568693940284235E+03
  2.568693940284235E+03
  2.568693940284235E+03
  2.568693940284235E+03
  2.568693940284235E+03
  2.568693940284235E+03
  2.568693940284235E+03
  2.568693940284235E+03
  2.568693940284235E+03
  2.568693940284235E+03
  2.568693940284235E+03
  2.568693940284235E+03
  2.568693940284235E+03
  2.568693940284235E+03
  2.568693940284235E+03
  2.568693940284235E+03
  2.568693940284235E+03
  2.568693940284235E+03
  2.568693940284235E+03
  2.568693940284235E+03
  2.568693940284235E+03
  2.568693940284235E+03
  2.568693940284235E+03
  2.568693940284235E+03
  2.568693940284235E+03
  2.568693940284235E+03
  2.568693940284235E+03
  2.568693940284235E+03
  2.568693940284235E+03
  2.568693940284235E+03
  2.568693940284235E+03
  2.568693940284235E+03
  2.568693940284235E+03
  2.568693940284235E+03
  2.568693940284235E+03
  2.568693940284235E+03
  2.568693940284235E+03
  2.568693940284235E+03
  2.568693940284235E+03
  2.568693940284235E+03
  2.568693940284235E+03
  2.568693940284235E+03
  2.568693940284235E+03
  2.568693940284235E+03
SCALARS Liquid_Density float
LOOKUP_TABLE default
  7.459568259364008E+02
  7.450796549432401E+02
  7.442009304859263E+02
  7.433206675749589E+02
  7.424388816816454E+02
  7.415555694052413E+02
  7.406707515790029E+02
  7.397844489618221E+02
  7.388966795736720E+02
  7.380074612995560E+02
  7.371168122880571E+02
  7.362247510707865E+02
  7.353312966109208E+02
  7.344364683273348E+02
  7.335402861085126E+02
  7.326427242980646E+02
  7.317438233294380E+02
  7.308436120994606E+02
  7.299421149032320E+02
  7.290393550871046E+02
  7.459568259364008E+02
  7.450796549432401E+02
  7.442009304859263E+02
  7.433206675749589E+02
  7.424388816816452E+02
  7.415555694052410E+02
  7.406707515790024E+02
  7.397844489618221E+02
  7.388966795736720E+02
  7.380074612995558E+02
  7.371168122880571E+02
  7.362247510707861E+02
  7.353312966109208E+02
  7.344364683273344E+02
  7.335402861085126E+02
  7.326427242980646E+02
  7.317438233294380E+02
  7.308436120994606E+02
  7.299421149032320E+02
  7.290393550871046E+02
  7.459568259364008E+02
  7.450796549432401E+02
  7.442009304859263E+02
  7.433206675749589E+02
  7.424388816816452E+02
  7.415555694052410E+02
  7.406707515790024E+02
  7.397844489618221E+02
  7.388966795736720E+02
  7.380074612995558E+02
  7.371168122880571E+02
  7.362247510707861E+02
  7.353312966109208E+02
  7.344364683273344E+02
  7.335402861085126E+02
  7.326427242980646E+02
  7.317438233294380E+02
  7.308436120994606E+02
  7.299421149032320E+02
  7.290393550871046E+02
  7.459568259364008E+02
  7.450796549432401E+02
  7.442009304859263E+02
  7.433206675749589E+02
  7.424388816816452E+02
  7.415555694052410E+02
  7.406707515790024E+02
  7.397844489618221E+02
  7.388966795736720E+02
  7.380074612995558E+02
  7.371168122880571E+02
  7.362247510707861E+02
  7.353312966109208E+02
  7.344364683273344E+02
  7.335402861085126E+02
  7.326427242980646E+02
  7.317438233294380E+02
  7.308436120994606E+02
  7.299421149032320E+02
  7.290393550871046E+02
SCALARS Vapor_Density float
LOOKUP_TABLE default
  1.132113675582275E+02
  1.132025396058286E+02
  1.131937115302370E+02
  1.131848833314679E+02
  1.131760550095361E+02
  1.131672265644566E+02
  1.131583979962447E+02
  1.131495693049151E+02
  1.131407404904829E+02
  1.131319115529632E+02
  1.131230824923709E+02
  1.131142533087211E+02
  1.131054240020287E+02
  1.130965945723088E+02
  1.130877650195765E+02
  1.130789353438466E+02
  1.130701055451343E+02
  1.130612756234545E+02
  1.130524455788223E+02
  1.130436154112527E+02
  1.132113675582275E+02
  1.132025396058286E+02
  1.131937115302370E+02
  1.131848833314679E+02
  1.131760550095361E+02
  1.131672265644566E+02
  1.131583979962447E+02
  1.131495693049151E+02
  1.131407404904829E+02
  1.131319115529632E+02
  1.131230824923709E+02
  1.131142533087211E+02
  1.131054240020287E+02
  1.130965945723088E+02
  1.130877650195765E+02
  1.130789353438466E+02
  1.130701055451343E+02
  1.130612756234545E+02
  1.130524455788223E+02
  1.130436154112527E+02
  1.132113675582275E+02
  1.132025396058286E+02
  1.131937115302370E+02
  1.131848833314679E+02
  1.131760550095361E+02
  1.131672265644566E+02
  1.131583979962447E+02
  1.131495693049151E+02
  1.131407404904829E+02
  1.131319115529632E+02
  1.131230824923709E+02
  1.131142533087211E+02
  1.131054240020287E+02
  1.130965945723088E+02
  1.130877650195765E+02
  1.130789353438466E+02
  1.130701055451343E+02
  1.130612756234545E+02
  1.130524455788223E+02
  1.130436154112527E+02
  1.132113675582275E+02
  1.132025396058286E+02
  1.131937115302370E+02
  1.131848833314679E+02
  1.131760550095361E+02
  1.131672265644566E+02
  1.131583979962447E+02
  1.131495693049151E+02
  1.131407404904829E+02
  1.131319115529632E+02
  1.131230824923709E+02
  1.131142533087211E+02
  1.131054240020287E+02
  1.130965945723088E+02
  1.130877650195765E+02
  1.130789353438466E+02
  1.130701055451343E+02
  1.130612756234545E+02
  1.130524455788223E+02
  1.130436154112527E+02
SCALARS Vapor_Generation float
LOOKUP_TABLE default
  0.000000000000000E+00
  0.000000000000000E+00
  0.000000000000000E+00
  0.000000000000000E+00
  0.000000000000000E+00
  0.000000000000000E+00
  0.000000000000000E+00
  0.000000000000000E+00
  0.000000000000000E+00
  0.000000000000000E+00
  0.000000000000000E+00
  0.000000000000000E+00
  0.000000000000000E+00
  0.000000000000000E+00
  0.000000000000000E+00
  0.000000000000000E+00
  0.000000000000000E+00
  0.000000000000000E+00
  0.000000000000000E+00
  0.000000000000000E+00
  0.000000000000000E+00
  0.000000000000000E+00
  0.000000000000000E+00
  0.000000000000000E+00
  0.000000000000000E+00
  0.000000000000000E+00
  0.000000000000000E+00
  0.000000000000000E+00
  0.000000000000000E+00
  0.000000000000000E+00
  0.000000000000000E+00
  0.000000000000000E+00
  0.000000000000000E+00
  0.000000000000000E+00
  0.000000000000000E+00
  0.000000000000000E+00
  0.000000000000000E+00
  0.000000000000000E+00
  0.000000000000000E+00
  0.000000000000000E+00
  0.000000000000000E+00
  0.000000000000000E+00
  0.000000000000000E+00
  0.000000000000000E+00
  0.000000000000000E+00
  0.000000000000000E+00
  0.000000000000000E+00
  0.000000000000000E+00
  0.000000000000000E+00
  0.000000000000000E+00
  0.000000000000000E+00
  0.000000000000000E+00
  0.000000000000000E+00
  0.000000000000000E+00
  0.000000000000000E+00
  0.000000000000000E+00
  0.000000000000000E+00
  0.000000000000000E+00
  0.000000000000000E+00
  0.000000000000000E+00
  0.000000000000000E+00
  0.000000000000000E+00
  0.000000000000000E+00
  0.000000000000000E+00
  0.000000000000000E+00
  0.000000000000000E+00
  0.000000000000000E+00
  0.000000000000000E+00
  0.000000000000000E+00
  0.000000000000000E+00
  0.000000000000000E+00
  0.000000000000000E+00
  0.000000000000000E+00
  0.000000000000000E+00
  0.000000000000000E+00
  0.000000000000000E+00
  0.000000000000000E+00
  0.000000000000000E+00
  0.000000000000000E+00
  0.000000000000000E+00
SCALARS Scalar_Cell_Flow_Area float
LOOKUP_TABLE default
  2.196945393999999E-05
  2.196945393999999E-05
  2.196945393999999E-05
  2.196945393999999E-05
  2.196945393999999E-05
  2.196945393999999E-05
  2.196945393999999E-05
  2.196945393999999E-05
  2.196945393999999E-05
  2.196945393999999E-05
  2.196945393999999E-05
  2.196945393999999E-05
  2.196945393999999E-05
  2.196945393999999E-05
  2.196945393999999E-05
  2.196945393999999E-05
  2.196945393999999E-05
  2.196945393999999E-05
  2.196945393999999E-05
  2.196945393999999E-05
  2.196945393999999E-05
  2.196945393999999E-05
  2.196945393999999E-05
  2.196945393999999E-05
  2.196945393999999E-05
  2.196945393999999E-05
  2.196945393999999E-05
  2.196945393999999E-05
  2.196945393999999E-05
  2.196945393999999E-05
  2.196945393999999E-05
  2.196945393999999E-05
  2.196945393999999E-05
  2.196945393999999E-05
  2.196945393999999E-05
  2.196945393999999E-05
  2.196945393999999E-05
  2.196945393999999E-05
  2.196945393999999E-05
  2.196945393999999E-05
  2.196945393999999E-05
  2.196945393999999E-05
  2.196945393999999E-05
  2.196945393999999E-05
  2.196945393999999E-05
  2.196945393999999E-05
  2.196945393999999E-05
  2.196945393999999E-05
  2.196945393999999E-05
  2.196945393999999E-05
  2.196945393999999E-05
  2.196945393999999E-05
  2.196945393999999E-05
  2.196945393999999E-05
  2.196945393999999E-05
  2.196945393999999E-05
  2.196945393999999E-05
  2.196945393999999E-05
  2.196945393999999E-05
  2.196945393999999E-05
  2.196945393999999E-05
  2.196945393999999E-05
  2.196945393999999E-05
  2.196945393999999E-05
  2.196945393999999E-05
  2.196945393999999E-05
  2.196945393999999E-05
  2.196945393999999E-05
  2.196945393999999E-05
  2.196945393999999E-05
  2.196945393999999E-05
  2.196945393999999E-05
  2.196945393999999E-05
  2.196945393999999E-05
  2.196945393999999E-05
  2.196945393999999E-05
  2.196945393999999E-05
  2.196945393999999E-05
  2.196945393999999E-05
  2.196945393999999E-05
SCALARS Channel_Wetted_Perimeter float
LOOKUP_TABLE default
  7.461282551999999E-03
  7.461282551999999E-03
  7.461282551999999E-03
  7.461282551999999E-03
  7.461282551999999E-03
  7.461282551999999E-03
  7.461282551999999E-03
  7.461282551999999E-03