# vtk DataFile Version 2.0
Scalar Data
ASCII
DATASET UNSTRUCTURED_GRID
FIELD FieldData 2
Time 1 1 double
  1.399999999999975E+01
  dt 1 1 double
  1.000000000000000E-02
POINTS         640 double
 -1.40000000E-02 -1.40000000E-02  0.00000000E+00
  0.00000000E+00 -1.40000000E-02  0.00000000E+00
 -1.40000000E-02  0.00000000E+00  0.00000000E+00
  0.00000000E+00  0.00000000E+00  0.00000000E+00
 -1.40000000E-02 -1.40000000E-02  1.82900000E-01
  0.00000000E+00 -1.40000000E-02  1.82900000E-01
 -1.40000000E-02  0.00000000E+00  1.82900000E-01
  0.00000000E+00  0.00000000E+00  1.82900000E-01
 -1.40000000E-02 -1.40000000E-02  1.82900000E-01
  0.00000000E+00 -1.40000000E-02  1.82900000E-01
 -1.40000000E-02  0.00000000E+00  1.82900000E-01
  0.00000000E+00  0.00000000E+00  1.82900000E-01
 -1.40000000E-02 -1.40000000E-02  3.65800000E-01
  0.00000000E+00 -1.40000000E-02  3.65800000E-01
 -1.40000000E-02  0.00000000E+00  3.65800000E-01
  0.00000000E+00  0.00000000E+00  3.65800000E-01
 -1.40000000E-02 -1.40000000E-02  3.65800000E-01
  0.00000000E+00 -1.40000000E-02  3.65800000E-01
 -1.40000000E-02  0.00000000E+00  3.65800000E-01
  0.00000000E+00  0.00000000E+00  3.65800000E-01
 -1.40000000E-02 -1.40000000E-02  5.48700000E-01
  0.00000000E+00 -1.40000000E-02  5.48700000E-01
 -1.40000000E-02  0.00000000E+00  5.48700000E-01
  0.00000000E+00  0.00000000E+00  5.48700000E-01
 -1.40000000E-02 -1.40000000E-02  5.48700000E-01
  0.00000000E+00 -1.40000000E-02  5.48700000E-01
 -1.40000000E-02  0.00000000E+00  5.48700000E-01
  0.00000000E+00  0.00000000E+00  5.48700000E-01
 -1.40000000E-02 -1.40000000E-02  7.31600000E-01
  0.00000000E+00 -1.40000000E-02  7.31600000E-01
 -1.40000000E-02  0.00000000E+00  7.31600000E-01
  0.00000000E+00  0.00000000E+00  7.31600000E-01
 -1.40000000E-02 -1.40000000E-02  7.31600000E-01
  0.00000000E+00 -1.40000000E-02  7.31600000E-01
 -1.40000000E-02  0.00000000E+00  7.31600000E-01
  0.00000000E+00  0.00000000E+00  7.31600000E-01
 -1.40000000E-02 -1.40000000E-02  9.14500000E-01
  0.00000000E+00 -1.40000000E-02  9.14500000E-01
 -1.40000000E-02  0.00000000E+00  9.14500000E-01
  0.00000000E+00  0.00000000E+00  9.14500000E-01
 -1.40000000E-02 -1.40000000E-02  9.14500000E-01
  0.00000000E+00 -1.40000000E-02  9.14500000E-01
 -1.40000000E-02  0.00000000E+00  9.14500000E-01
  0.00000000E+00  0.00000000E+00  9.14500000E-01
 -1.40000000E-02 -1.40000000E-02  1.09740000E+00
  0.00000000E+00 -1.40000000E-02  1.09740000E+00
 -1.40000000E-02  0.00000000E+00  1.09740000E+00
  0.00000000E+00  0.00000000E+00  1.09740000E+00
 -1.40000000E-02 -1.40000000E-02  1.09740000E+00
  0.00000000E+00 -1.40000000E-02  1.09740000E+00
 -1.40000000E-02  0.00000000E+00  1.09740000E+00
  0.00000000E+00  0.00000000E+00  1.09740000E+00
 -1.40000000E-02 -1.40000000E-02  1.28030000E+00
  0.00000000E+00 -1.40000000E-02  1.28030000E+00
 -1.40000000E-02  0.00000000E+00  1.28030000E+00
  0.00000000E+00  0.00000000E+00  1.28030000E+00
 -1.40000000E-02 -1.40000000E-02  1.28030000E+00
  0.00000000E+00 -1.40000000E-02  1.28030000E+00
 -1.40000000E-02  0.00000000E+00  1.28030000E+00
  0.00000000E+00  0.00000000E+00  1.28030000E+00
 -1.40000000E-02 -1.40000000E-02  1.46320000E+00
  0.00000000E+00 -1.40000000E-02  1.46320000E+00
 -1.40000000E-02  0.00000000E+00  1.46320000E+00
  0.00000000E+00  0.00000000E+00  1.46320000E+00
 -1.40000000E-02 -1.40000000E-02  1.46320000E+00
  0.00000000E+00 -1.40000000E-02  1.46320000E+00
 -1.40000000E-02  0.00000000E+00  1.46320000E+00
  0.00000000E+00  0.00000000E+00  1.46320000E+00
 -1.40000000E-02 -1.40000000E-02  1.64610000E+00
  0.00000000E+00 -1.40000000E-02  1.64610000E+00
 -1.40000000E-02  0.00000000E+00  1.64610000E+00
  0.00000000E+00  0.00000000E+00  1.64610000E+00
 -1.40000000E-02 -1.40000000E-02  1.64610000E+00
  0.00000000E+00 -1.40000000E-02  1.64610000E+00
 -1.40000000E-02  0.00000000E+00  1.64610000E+00
  0.00000000E+00  0.00000000E+00  1.64610000E+00
 -1.40000000E-02 -1.40000000E-02  1.82900000E+00
  0.00000000E+00 -1.40000000E-02  1.82900000E+00
 -1.40000000E-02  0.00000000E+00  1.82900000E+00
  0.00000000E+00  0.00000000E+00  1.82900000E+00
 -1.40000000E-02 -1.40000000E-02  1.82900000E+00
  0.00000000E+00 -1.40000000E-02  1.82900000E+00
 -1.40000000E-02  0.00000000E+00  1.82900000E+00
  0.00000000E+00  0.00000000E+00  1.82900000E+00
 -1.40000000E-02 -1.40000000E-02  2.01190000E+00
  0.00000000E+00 -1.40000000E-02  2.01190000E+00
 -1.40000000E-02  0.00000000E+00  2.01190000E+00
  0.00000000E+00  0.00000000E+00  2.01190000E+00
 -1.40000000E-02 -1.40000000E-02  2.01190000E+00
  0.00000000E+00 -1.40000000E-02  2.01190000E+00
 -1.40000000E-02  0.00000000E+00  2.01190000E+00
  0.00000000E+00  0.00000000E+00  2.01190000E+00
 -1.40000000E-02 -1.40000000E-02  2.19480000E+00
  0.00000000E+00 -1.40000000E-02  2.19480000E+00
 -1.40000000E-02  0.00000000E+00  2.19480000E+00
  0.00000000E+00  0.00000000E+00  2.19480000E+00
 -1.40000000E-02 -1.40000000E-02  2.19480000E+00
  0.00000000E+00 -1.40000000E-02  2.19480000E+00
 -1.40000000E-02  0.00000000E+00  2.19480000E+00
  0.00000000E+00  0.00000000E+00  2.19480000E+00
 -1.40000000E-02 -1.40000000E-02  2.37770000E+00
  0.00000000E+00 -1.40000000E-02  2.37770000E+00
 -1.40000000E-02  0.00000000E+00  2.37770000E+00
  0.00000000E+00  0.00000000E+00  2.37770000E+00
 -1.40000000E-02 -1.40000000E-02  2.37770000E+00
  0.00000000E+00 -1.40000000E-02  2.37770000E+00
 -1.40000000E-02  0.00000000E+00  2.37770000E+00
  0.00000000E+00  0.00000000E+00  2.37770000E+00
 -1.40000000E-02 -1.40000000E-02  2.56060000E+00
  0.00000000E+00 -1.40000000E-02  2.56060000E+00
 -1.40000000E-02  0.00000000E+00  2.56060000E+00
  0.00000000E+00  0.00000000E+00  2.56060000E+00
 -1.40000000E-02 -1.40000000E-02  2.56060000E+00
  0.00000000E+00 -1.40000000E-02  2.56060000E+00
 -1.40000000E-02  0.00000000E+00  2.56060000E+00
  0.00000000E+00  0.00000000E+00  2.56060000E+00
 -1.40000000E-02 -1.40000000E-02  2.74350000E+00
  0.00000000E+00 -1.40000000E-02  2.74350000E+00
 -1.40000000E-02  0.00000000E+00  2.74350000E+00
  0.00000000E+00  0.00000000E+00  2.74350000E+00
 -1.40000000E-02 -1.40000000E-02  2.74350000E+00
  0.00000000E+00 -1.40000000E-02  2.74350000E+00
 -1.40000000E-02  0.00000000E+00  2.74350000E+00
  0.00000000E+00  0.00000000E+00  2.74350000E+00
 -1.40000000E-02 -1.40000000E-02  2.92640000E+00
  0.00000000E+00 -1.40000000E-02  2.92640000E+00
 -1.40000000E-02  0.00000000E+00  2.92640000E+00
  0.00000000E+00  0.00000000E+00  2.92640000E+00
 -1.40000000E-02 -1.40000000E-02  2.92640000E+00
  0.00000000E+00 -1.40000000E-02  2.92640000E+00
 -1.40000000E-02  0.00000000E+00  2.92640000E+00
  0.00000000E+00  0.00000000E+00  2.92640000E+00
 -1.40000000E-02 -1.40000000E-02  3.10930000E+00
  0.00000000E+00 -1.40000000E-02  3.10930000E+00
 -1.40000000E-02  0.00000000E+00  3.10930000E+00
  0.00000000E+00  0.00000000E+00  3.10930000E+00
 -1.40000000E-02 -1.40000000E-02  3.10930000E+00
  0.00000000E+00 -1.40000000E-02  3.10930000E+00
 -1.40000000E-02  0.00000000E+00  3.10930000E+00
  0.00000000E+00  0.00000000E+00  3.10930000E+00
 -1.40000000E-02 -1.40000000E-02  3.29220000E+00
  0.00000000E+00 -1.40000000E-02  3.29220000E+00
 -1.40000000E-02  0.00000000E+00  3.29220000E+00
  0.00000000E+00  0.00000000E+00  3.29220000E+00
 -1.40000000E-02 -1.40000000E-02  3.29220000E+00
  0.00000000E+00 -1.40000000E-02  3.29220000E+00
 -1.40000000E-02  0.00000000E+00  3.29220000E+00
  0.00000000E+00  0.00000000E+00  3.29220000E+00
 -1.40000000E-02 -1.40000000E-02  3.47510000E+00
  0.00000000E+00 -1.40000000E-02  3.47510000E+00
 -1.40000000E-02  0.00000000E+00  3.47510000E+00
  0.00000000E+00  0.00000000E+00  3.47510000E+00
 -1.40000000E-02 -1.40000000E-02  3.47510000E+00
  0.00000000E+00 -1.40000000E-02  3.47510000E+00
 -1.40000000E-02  0.00000000E+00  3.47510000E+00
  0.00000000E+00  0.00000000E+00  3.47510000E+00
 -1.40000000E-02 -1.40000000E-02  3.65800000E+00
  0.00000000E+00 -1.40000000E-02  3.65800000E+00
 -1.40000000E-02  0.00000000E+00  3.65800000E+00
  0.00000000E+00  0.00000000E+00  3.65800000E+00
  0.00000000E+00 -1.40000000E-02  0.00000000E+00
  1.40000000E-02 -1.40000000E-02  0.00000000E+00
  0.00000000E+00  0.00000000E+00  0.00000000E+00
  1.40000000E-02  0.00000000E+00  0.00000000E+00
  0.00000000E+00 -1.40000000E-02  1.82900000E-01
  1.40000000E-02 -1.40000000E-02  1.82900000E-01
  0.00000000E+00  0.00000000E+00  1.82900000E-01
  1.40000000E-02  0.00000000E+00  1.82900000E-01
  0.00000000E+00 -1.40000000E-02  1.82900000E-01
  1.40000000E-02 -1.40000000E-02  1.82900000E-01
  0.00000000E+00  0.00000000E+00  1.82900000E-01
  1.40000000E-02  0.00000000E+00  1.82900000E-01
  0.00000000E+00 -1.40000000E-02  3.65800000E-01
  1.40000000E-02 -1.40000000E-02  3.65800000E-01
  0.00000000E+00  0.00000000E+00  3.65800000E-01
  1.40000000E-02  0.00000000E+00  3.65800000E-01
  0.00000000E+00 -1.40000000E-02  3.65800000E-01
  1.40000000E-02 -1.40000000E-02  3.65800000E-01
  0.00000000E+00  0.00000000E+00  3.65800000E-01
  1.40000000E-02  0.00000000E+00  3.65800000E-01
  0.00000000E+00 -1.40000000E-02  5.48700000E-01
  1.40000000E-02 -1.40000000E-02  5.48700000E-01
  0.00000000E+00  0.00000000E+00  5.48700000E-01
  1.40000000E-02  0.00000000E+00  5.48700000E-01
  0.00000000E+00 -1.40000000E-02  5.48700000E-01
  1.40000000E-02 -1.40000000E-02  5.48700000E-01
  0.00000000E+00  0.00000000E+00  5.48700000E-01
  1.40000000E-02  0.00000000E+00  5.48700000E-01
  0.00000000E+00 -1.40000000E-02  7.31600000E-01
  1.40000000E-02 -1.40000000E-02  7.31600000E-01
  0.00000000E+00  0.00000000E+00  7.31600000E-01
  1.40000000E-02  0.00000000E+00  7.31600000E-01
  0.00000000E+00 -1.40000000E-02  7.31600000E-01
  1.40000000E-02 -1.40000000E-02  7.31600000E-01
  0.00000000E+00  0.00000000E+00  7.31600000E-01
  1.40000000E-02  0.00000000E+00  7.31600000E-01
  0.00000000E+00 -1.40000000E-02  9.14500000E-01
  1.40000000E-02 -1.40000000E-02  9.14500000E-01
  0.00000000E+00  0.00000000E+00  9.14500000E-01
  1.40000000E-02  0.00000000E+00  9.14500000E-01
[...]
CELL_DATA      80
SCALARS Liquid_Volume_Fraction float
LOOKUP_TABLE default
  1.000000000000000E+00
  1.000000000000000E+00
  1.000000000000000E+00
  1.000000000000000E+00
  1.000000000000000E+00
  1.000000000000000E+00
  1.000000000000000E+00
  1.000000000000000E+00
  1.000000000000000E+00
  1.000000000000000E+00
  1.000000000000000E+00
  1.000000000000000E+00
  1.000000000000000E+00
  1.000000000000000E+00
  1.000000000000000E+00
  1.000000000000000E+00
  1.000000000000000E+00
  1.000000000000000E+00
  1.000000000000000E+00
  1.000000000000000E+00
  1.000000000000000E+00
  1.000000000000000E+00
  1.000000000000000E+00
  1.000000000000000E+00
  1.000000000000000E+00
  1.000000000000000E+00
  1.000000000000000E+00
  1.000000000000000E+00
  1.000000000000000E+00
  1.000000000000000E+00
  1.000000000000000E+00
  1.000000000000000E+00
  1.000000000000000E+00
  1.000000000000000E+00
  1.000000000000000E+00
  1.000000000000000E+00
  1.000000000000000E+00
  1.000000000000000E+00
  1.000000000000000E+00
  1.000000000000000E+00
  1.000000000000000E+00
  1.000000000000000E+00
  1.000000000000000E+00
  1.000000000000000E+00
  1.000000000000000E+00
  1.000000000000000E+00
  1.000000000000000E+00
  1.000000000000000E+00
  1.000000000000000E+00
  1.000000000000000E+00
  1.000000000000000E+00
  1.000000000000000E+00
  1.000000000000000E+00
  1.000000000000000E+00
  1.000000000000000E+00
  1.000000000000000E+00
  1.000000000000000E+00
  1.000000000000000E+00
  1.000000000000000E+00
  1.000000000000000E+00
  1.000000000000000E+00
  1.000000000000000E+00
  1.000000000000000E+00
  1.000000000000000E+00
  1.000000000000000E+00
  1.000000000000000E+00
  1.000000000000000E+00
  1.000000000000000E+00
  1.000000000000000E+00
  1.000000000000000E+00
  1.000000000000000E+00
  1.000000000000000E+00
  1.000000000000000E+00
  1.000000000000000E+00
  1.000000000000000E+00
  1.000000000000000E+00
  1.000000000000000E+00
  1.000000000000000E+00
  1.000000000000000E+00
  1.000000000000000E+00
SCALARS Entrained_Volume_Fraction float
LOOKUP_TABLE default
  0.000000000000000E+00
  0.000000000000000E+00
  0.000000000000000E+00
  0.000000000000000E+00
  0.000000000000000E+00
  0.000000000000000E+00
  0.000000000000000E+00
  0.000000000000000E+00
  0.000000000000000E+00
  0.000000000000000E+00
  0.000000000000000E+00
  0.000000000000000E+00
  0.000000000000000E+00
  0.000000000000000E+00
  0.000000000000000E+00
  0.000000000000000E+00
  0.000000000000000E+00
  0.000000000000000E+00
  0.000000000000000E+00
  0.000000000000000E+00
  0.000000000000000E+00
  0.000000000000000E+00
  0.000000000000000E+00
  0.000000000000000E+00
  0.000000000000000E+00
  0.000000000000000E+00
  0.000000000000000E+00
  0.000000000000000E+00
  0.000000000000000E+00
  0.000000000000000E+00
  0.000000000000000E+00
  0.000000000000000E+00
  0.000000000000000E+00
  0.000000000000000E+00
  0.000000000000000E+00
  0.000000000000000E+00
  0.000000000000000E+00
  0.000000000000000E+00
  0.000000000000000E+00
  0.000000000000000E+00
  0.000000000000000E+00
  0.000000000000000E+00
  0.000000000000000E+00
  0.000000000000000E+00
  0.000000000000000E+00
  0.000000000000000E+00
  0.000000000000000E+00
  0.000000000000000E+00
  0.000000000000000E+00
  0.000000000000000E+00
  0.000000000000000E+00
  0.000000000000000E+00
  0.000000000000000E+00
  0.000000000000000E+00
  0.000000000000000E+00
  0.000000000000000E+00
  0.000000000000000E+00
  0.000000000000000E+00
  0.000000000000000E+00
  0.000000000000000E+00
  0.000000000000000E+00
  0.000000000000000E+00
  0.000000000000000E+00
  0.000000000000000E+00
  0.000000000000000E+00
  0.000000000000000E+00
  0.000000000000000E+00
  0.000000000000000E+00
  0.000000000000000E+00
  0.000000000000000E+00
  0.000000000000000E+00
  0.000000000000000E+00
  0.000000000000000E+00
  0.000000000000000E+00
  0.000000000000000E+00
  0.000000000000000E+00
  0.000000000000000E+00
  0.000000000000000E+00
  0.000000000000000E+00
  0.000000000000000E+00
SCALARS Vapor_Volume_Fraction float
LOOKUP_TABLE default
  0.000000000000000E+00
  0.000000000000000E+00
  0.000000000000000E+00
  0.000000000000000E+00
  0.000000000000000E+00
  0.000000000000000E+00
  0.000000000000000E+00
  0.000000000000000E+00
  0.000000000000000E+00
  0.000000000000000E+00
  0.000000000000000E+00
  0.000000000000000E+00
  0.000000000000000E+00
  0.000000000000000E+00
  0.000000000000000E+00
  0.000000000000000E+00
  0.000000000000000E+00
  0.000000000000000E+00
  0.000000000000000E+00
  0.000000000000000E+00
  0.000000000000000E+00
  0.000000000000000E+00
  0.000000000000000E+00
  0.000000000000000E+00
  0.000000000000000E+00
  0.000000000000000E+00
  0.000000000000000E+00
  0.000000000000000E+00
  0.000000000000000E+00
  0.000000000000000E+00
  0.000000000000000E+00
  0.000000000000000E+00
  0.000000000000000E+00
  0.000000000000000E+00
  0.000000000000000E+00
  0.000000000000000E+00
  0.000000000000000E+00
  0.000000000000000E+00
  0.000000000000000E+00
  0.000000000000000E+00
  0.000000000000000E+00
  0.000000000000000E+00
  0.000000000000000E+00
  0.000000000000000E+00
  0.000000000000000E+00
  0.000000000000000E+00
  0.000000000000000E+00
  0.000000000000000E+00
  0.000000000000000E+00
  0.000000000000000E+00
  0.000000000000000E+00
  0.000000000000000E+00
  0.000000000000000E+00
  0.000000000000000E+00
  0.000000000000000E+00
  0.000000000000000E+00
  0.000000000000000E+00
  0.000000000000000E+00
  0.000000000000000E+00
  0.000000000000000E+00
  0.000000000000000E+00
  0.000000000000000E+00
  0.000000000000000E+00
  0.000000000000000E+00
  0.000000000000000E+00
  0.000000000000000E+00
  0.000000000000000E+00
  0.000000000000000E+00
  0.000000000000000E+00
  0.000000000000000E+00
  0.000000000000000E+00
  0.000000000000000E+00
  0.000000000000000E+00
  0.000000000000000E+00
  0.000000000000000E+00
  0.000000000000000E+00
  0.000000000000000E+00
  0.000000000000000E+00
  0.000000000000000E+00
  0.000000000000000E+00
SCALARS Pressure float
LOOKUP_TABLE default
  1.652684042485479E+02
  1.652548399774179E+02
  1.652412907076601E+02
  1.652277564616779E+02
  1.652142372681509E+02
  1.652007331556282E+02
  1.651872441499428E+02
  1.651737702806072E+02
  1.651603115762916E+02
  1.651468680651552E+02
  1.651334397751305E+02
  1.651200267339629E+02
  1.651066289692185E+02
  1.650932465082835E+02
  1.650798793783608E+02
  1.650665276064653E+02
  1.650531912124386E+02
  1.650398702276674E+02
  1.650265646796235E+02
  1.650132745949748E+02
  1.652684042485480E+02
  1.652548399774179E+02
  1.652412907076601E+02
  1.652277564616780E+02
  1.652142372681510E+02
  1.652007331556282E+02
  1.651872441499428E+02
  1.651737702806073E+02
  1.651603115762917E+02
  1.651468680651552E+02
  1.651334397751305E+02
  1.651200267339629E+02
  1.651066289692185E+02
  1.650932465082835E+02
  1.650798793783608E+02
  1.650665276064653E+02
  1.650531912124386E+02
  1.650398702276674E+02
  1.650265646796234E+02
  1.650132745949748E+02
  1.652684042485480E+02
  1.652548399774179E+02
  1.652412907076601E+02
  1.652277564616780E+02
  1.652142372681510E+02
  1.652007331556282E+02
  1.651872441499428E+02
  1.651737702806073E+02
  1.651603115762917E+02
  1.651468680651552E+02
  1.651334397751305E+02
  1.651200267339629E+02
  1.651066289692185E+02
  1.650932465082835E+02
  1.650798793783608E+02
  1.650665276064653E+02
  1.650531912124386E+02
  1.650398702276674E+02
  1.650265646796234E+02
  1.650132745949748E+02
  1.652684042485480E+02
  1.652548399774179E+02
  1.652412907076601E+02
  1.652277564616780E+02
  1.652142372681510E+02
  1.652007331556282E+02
  1.651872441499428E+02
  1.651737702806073E+02
  1.651603115762917E+02
  1.651468680651552E+02
  1.651334397751305E+02
  1.651200267339629E+02
  1.651066289692185E+02
  1.650932465082835E+02
  1.650798793783608E+02
  1.650665276064653E+02
  1.650531912124386E+02
  1.650398702276674E+02
  1.650265646796234E+02
  1.650132745949748E+02
SCALARS Liquid_Enthalpy float
LOOKUP_TABLE default
  1.291559160929966E+03
  1.293974426814601E+03
  1.296388643050481E+03
  1.298801781374264E+03
  1.301213813064522E+03
  1.303624745408469E+03
  1.306034534899661E+03
  1.308443146053997E+03
  1.310850547398362E+03
  1.313256707844982E+03
  1.315661596139349E+03
  1.318065180697103E+03
  1.320467429539716E+03
  1.322868310264154E+03
  1.325267790026745E+03
  1.327665928946442E+03
  1.330062638476328E+03
  1.332457874219054E+03
  1.334851598214221E+03
  1.337243774003771E+03
  1.291559160929966E+03
  1.293974426814601E+03
  1.296388643050481E+03
  1.298801781374264E+03
  1.301213813064522E+03
  1.303624745408469E+03
  1.306034534899661E+03
  1.308443146053997E+03
  1.310850547398362E+03
  1.313256707844982E+03
  1.315661596139349E+03
  1.318065180697104E+03
  1.320467429539716E+03
  1.322868310264154E+03
  1.325267790026745E+03
  1.327665928946442E+03
  1.330062638476327E+03
  1.332457874219054E+03
  1.334851598214221E+03
  1.337243774003771E+03
  1.291559160929966E+03
  1.293974426814601E+03
  1.296388643050481E+03
  1.298801781374264E+03
  1.301213813064522E+03
  1.303624745408469E+03
  1.306034534899661E+03
  1.308443146053997E+03
  1.310850547398362E+03
  1.313256707844982E+03
  1.315661596139349E+03
  1.318065180697104E+03
  1.320467429539716E+03
  1.322868310264154E+03
  1.325267790026745E+03
  1.327665928946442E+03
  1.330062638476327E+03
  1.332457874219054E+03
  1.334851598214221E+03
  1.337243774003771E+03
  1.291559160929966E+03
  1.293974426814601E+03
  1.296388643050481E+03
  1.298801781374264E+03
  1.301213813064522E+03
  1.303624745408469E+03
  1.306034534899661E+03
  1.308443146053997E+03
  1.310850547398362E+03
  1.313256707844982E+03
  1.315661596139349E+03
  1.318065180697104E+03
  1.320467429539716E+03
  1.322868310264154E+03
  1.325267790026745E+03
  1.327665928946442E+03
  1.330062638476327E+03
  1.332457874219054E+03
  1.334851598214221E+03
  1.337243774003771E+03
SCALARS Vapor_Enthalpy float
LOOKUP_TABLE default
  2.568693940284235E+03
  2.568693940284235E+03
  2.568693940284235E+03
  2.568693940284235E+03
  2.568693940284235E+03
  2.568693940284235E+03
  2.568693940284235E+03
  2.568693940284235E+03
  2.568693940284235E+03
  2.568693940284235E+03
  2.568693940284235E+03
  2.568693940284235E+03
  2.568693940284235E+03
  2.568693940284235E+03
  2.568693940284235E+03
  2.568693940284235E+03
  2.568693940284235E+03
  2.568693940284235E+03
  2.568693940284235E+03
  2.568693940284235E+03
  2.568693940284235E+03
  2.568693940284235E+03
  2.568693940284235E+03
  2.568693940284235E+03
  2.568693940284235E+03
  2.568693940284235E+03
  2.568693940284235E+03
  2.568693940284235E+03
  2.568693940284235E+03
  2.568693940284235E+03
  2.568693940284235E+03
  2.568693940284235E+03
  2.568693940284235E+03
  2.568693940284235E+03
  2.568693940284235E+03
  2.568693940284235E+03
  2.568693940284235E+03
  2.568693940284235E+03
  2.568693940284235E+03
  2.568693940284235E+03
  2.568693940284235E+03
  2.568693940284235E+03
  2.568693940284235E+03
  2.568693940284235E+03
  2.568693940284235E+03
  2.568693940284235E+03
  2.568693940284235E+03
  2.568693940284235E+03
  2.568693940284235E+03
  2.568693940284235E+03
  2.568693940284235E+03
  2.568693940284235E+03
  2.568693940284235E+03
  2.568693940284235E+03
  2.568693940284235E+03
  2.568693940284235E+03
  2.568693940284235E+03
  2.568693940284235E+03
  2.568693940284235E+03
  2.568693940284235E+03
  2.568693940284235E+03
  2.568693940284235E+03
  2.568693940284235E+03
  2.568693940284235E+03
  2.568693940284235E+03
  2.568693940284235E+03
  2.568693940284235E+03
  2.568693940284235E+03
  2.568693940284235E+03
  2.568693940284235E+03
  2.568693940284235E+03
  2.568693940284235E+03
  2.568693940284235E+03
  2.568693940284235E+03
  2.568693940284235E+03
  2.568693940284235E+03
  2.568693940284235E+03
  2.568693940284235E+03
  2.568693940284235E+03
  2.568693940284235E+03
SCALARS Liquid_Density float
LOOKUP_TABLE default
  7.459491808891808E+02
  7.450639949350675E+02
  7.441769218453270E+02
  7.432879681078465E+02
  7.423971405432873E+02
  7.415044328248681E+02
  7.406098574830686E+02
  7.397134242915362E+02
  7.388151417240445E+02
  7.379150182909707E+02
  7.370130627454214E+02
  7.361092841464366E+02
  7.352036918859253E+02
  7.342962957031301E+02
  7.333871056938864E+02
  7.324760968856253E+02
  7.315633006712194E+02
  7.306487320242406E+02
  7.297324036976649E+02
  7.288143280852031E+02
  7.459491808891808E+02
  7.450639949350675E+02
  7.441769218453270E+02
  7.432879681078462E+02
  7.423971405432869E+02
  7.415044328248681E+02
  7.406098574830686E+02
  7.397134242915359E+02
  7.388151417240445E+02
  7.379150182909707E+02
  7.370130627454214E+02
  7.361092841464366E+02
  7.352036918859253E+02
  7.342962957031301E+02
  7.333871056938864E+02
  7.324760968856253E+02
  7.315633006712194E+02
  7.306487320242406E+02
  7.297324036976653E+02
  7.288143280852031E+02
  7.459491808891808E+02
  7.450639949350675E+02
  7.441769218453270E+02
  7.432879681078462E+02
  7.423971405432869E+02
  7.415044328248681E+02
  7.406098574830686E+02
  7.397134242915359E+02
  7.388151417240445E+02
  7.379150182909707E+02
  7.370130627454214E+02
  7.361092841464366E+02
  7.352036918859253E+02
  7.342962957031301E+02
  7.333871056938864E+02
  7.324760968856253E+02
  7.315633006712194E+02
  7.306487320242406E+02
  7.297324036976653E+02
  7.288143280852031E+02
  7.459491808891808E+02
  7.450639949350675E+02
  7.441769218453270E+02
  7.432879681078462E+02
  7.423971405432869E+02
  7.415044328248681E+02
  7.406098574830686E+02
  7.397134242915359E+02
  7.388151417240445E+02
  7.379150182909707E+02
  7.370130627454214E+02
  7.361092841464366E+02
  7.352036918859253E+02
  7.342962957031301E+02
  7.333871056938864E+02
  7.324760968856253E+02
  7.315633006712194E+02
  7.306487320242406E+02
  7.297324036976653E+02
  7.288143280852031E+02
SCALARS Vapor_Density float
LOOKUP_TABLE default
  1.132113675582275E+02
  1.132025396058286E+02
  1.131937115302370E+02
  1.131848833314679E+02
  1.131760550095361E+02
  1.131672265644566E+02
  1.131583979962447E+02
  1.131495693049151E+02
  1.131407404904829E+02
  1.131319115529632E+02
  1.131230824923709E+02
  1.131142533087211E+02
  1.131054240020287E+02
  1.130965945723088E+02
  1.130877650195765E+02
  1.130789353438466E+02
  1.130701055451343E+02
  1.130612756234545E+02
  1.130524455788223E+02
  1.130436154112527E+02
  1.132113675582275E+02
  1.132025396058286E+02
  1.131937115302370E+02
  1.131848833314679E+02
  1.131760550095361E+02
  1.131672265644566E+02
  1.131583979962447E+02
  1.131495693049151E+02
  1.131407404904829E+02
  1.131319115529632E+02
  1.131230824923709E+02
  1.131142533087211E+02
  1.131054240020287E+02
  1.130965945723088E+02
  1.130877650195765E+02
  1.130789353438466E+02
  1.130701055451343E+02
  1.130612756234545E+02
  1.130524455788223E+02
  1.130436154112527E+02
  1.132113675582275E+02
  1.132025396058286E+02
  1.131937115302370E+02
  1.131848833314679E+02
  1.131760550095361E+02
  1.131672265644566E+02
  1.131583979962447E+02
  1.131495693049151E+02
  1.131407404904829E+02
  1.131319115529632E+02
  1.131230824923709E+02
  1.131142533087211E+02
  1.131054240020287E+02
  1.130965945723088E+02
  1.130877650195765E+02
  1.130789353438466E+02
  1.130701055451343E+02
  1.130612756234545E+02
  1.130524455788223E+02
  1.130436154112527E+02
  1.132113675582275E+02
  1.132025396058286E+02
  1.131937115302370E+02
  1.131848833314679E+02
  1.131760550095361E+02
  1.131672265644566E+02
  1.131583979962447E+02
  1.131495693049151E+02
  1.131407404904829E+02
  1.131319115529632E+02
  1.131230824923709E+02
  1.131142533087211E+02
  1.131054240020287E+02
  1.130965945723088E+02
  1.130877650195765E+02
  1.130789353438466E+02
  1.130701055451343E+02
  1.130612756234545E+02
  1.130524455788223E+02
  1.130436154112527E+02
SCALARS Vapor_Generation float
LOOKUP_TABLE default
  0.000000000000000E+00
  0.000000000000000E+00
  0.000000000000000E+00
  0.000000000000000E+00
  0.000000000000000E+00
  0.000000000000000E+00
  0.000000000000000E+00
  0.000000000000000E+00
  0.000000000000000E+00
  0.000000000000000E+00
  0.000000000000000E+00
  0.000000000000000E+00
  0.000000000000000E+00
  0.000000000000000E+00
  0.000000000000000E+00
  0.000000000000000E+00
  0.000000000000000E+00
  0.000000000000000E+00
  0.000000000000000E+00
  0.000000000000000E+00
  0.000000000000000E+00
  0.000000000000000E+00
  0.000000000000000E+00
  0.000000000000000E+00
  0.000000000000000E+00
  0.000000000000000E+00
  0.000000000000000E+00
  0.000000000000000E+00
  0.000000000000000E+00
  0.000000000000000E+00
  0.000000000000000E+00
  0.000000000000000E+00
  0.000000000000000E+00
  0.000000000000000E+00
  0.000000000000000E+00
  0.000000000000000E+00
  0.000000000000000E+00
  0.000000000000000E+00
  0.000000000000000E+00
  0.000000000000000E+00
  0.000000000000000E+00
  0.000000000000000E+00
  0.000000000000000E+00
  0.000000000000000E+00
  0.000000000000000E+00
  0.000000000000000E+00
  0.000000000000000E+00
  0.000000000000000E+00
  0.000000000000000E+00
  0.000000000000000E+00
  0.000000000000000E+00
  0.000000000000000E+00
  0.000000000000000E+00
  0.000000000000000E+00
  0.000000000000000E+00
  0.000000000000000E+00
  0.000000000000000E+00
  0.000000000000000E+00
  0.000000000000000E+00
  0.000000000000000E+00
  0.000000000000000E+00
  0.000000000000000E+00
  0.000000000000000E+00
  0.000000000000000E+00
  0.000000000000000E+00
  0.000000000000000E+00
  0.000000000000000E+00
  0.000000000000000E+00
  0.000000000000000E+00
  0.000000000000000E+00
  0.000000000000000E+00
  0.000000000000000E+00
  0.000000000000000E+00
  0.000000000000000E+00
  0.000000000000000E+00
  0.000000000000000E+00
  0.000000000000000E+00
  0.000000000000000E+00
  0.000000000000000E+00
  0.000000000000000E+00
SCALARS Scalar_Cell_Flow_Area float
LOOKUP_TABLE default
  2.196945393999999E-05
  2.196945393999999E-05
  2.196945393999999E-05
  2.196945393999999E-05
  2.196945393999999E-05
  2.196945393999999E-05
  2.196945393999999E-05
  2.196945393999999E-05
  2.196945393999999E-05
  2.196945393999999E-05
  2.196945393999999E-05
  2.196945393999999E-05
  2.196945393999999E-05
  2.196945393999999E-05
  2.196945393999999E-05
  2.196945393999999E-05
  2.196945393999999E-05
  2.196945393999999E-05
  2.196945393999999E-05
  2.196945393999999E-05
  2.196945393999999E-05
  2.196945393999999E-05
  2.196945393999999E-05
  2.196945393999999E-05
  2.196945393999999E-05
  2.196945393999999E-05
  2.196945393999999E-05
  2.196945393999999E-05
  2.196945393999999E-05
  2.196945393999999E-05
  2.196945393999999E-05
  2.196945393999999E-05
  2.196945393999999E-05
  2.196945393999999E-05
  2.196945393999999E-05
  2.196945393999999E-05
  2.196945393999999E-05
  2.196945393999999E-05
  2.196945393999999E-05
  2.196945393999999E-05
  2.196945393999999E-05
  2.196945393999999E-05
  2.196945393999999E-05
  2.196945393999999E-05
  2.196945393999999E-05
  2.196945393999999E-05
  2.196945393999999E-05
  2.196945393999999E-05
  2.196945393999999E-05
  2.196945393999999E-05
  2.196945393999999E-05
  2.196945393999999E-05
  2.196945393999999E-05
  2.196945393999999E-05
  2.196945393999999E-05
  2.196945393999999E-05
  2.196945393999999E-05
  2.196945393999999E-05
  2.196945393999999E-05
  2.196945393999999E-05
  2.196945393999999E-05
  2.196945393999999E-05
  2.196945393999999E-05
  2.196945393999999E-05
  2.196945393999999E-05
  2.196945393999999E-05
  2.196945393999999E-05
  2.196945393999999E-05
  2.196945393999999E-05
  2.196945393999999E-05
  2.196945393999999E-05
  2.196945393999999E-05
  2.196945393999999E-05
  2.196945393999999E-05
  2.196945393999999E-05
  2.196945393999999E-05
  2.196945393999999E-05
  2.196945393999999E-05
  2.196945393999999E-05
  2.196945393999999E-05
SCALARS Channel_Wetted_Perimeter float
LOOKUP_TABLE default
  7.461282551999999E-03
  7.461282551999999E-03
  7.461282551999999E-03
  7.461282551999999E-03
  7.461282551999999E-03
  7.461282551999999E-03
  7.461282551999999E-03
  7.461282551999999E-03