# vtk DataFile Version 2.0
Rod Data
ASCII
DATASET UNSTRUCTURED_GRID
POINTS         176 double
 -2.37500000E-03  1.16250000E-02  0.00000000E+00
  2.37500000E-03  1.16250000E-02  0.00000000E+00
 -2.37500000E-03  1.63750000E-02  0.00000000E+00
  2.37500000E-03  1.63750000E-02  0.00000000E+00
 -2.37500000E-03  1.16250000E-02  4.57250000E-02
  2.37500000E-03  1.16250000E-02  4.57250000E-02
 -2.37500000E-03  1.63750000E-02  4.57250000E-02
  2.37500000E-03  1.63750000E-02  4.57250000E-02
 -2.37500000E-03  1.16250000E-02  4.57250000E-02
  2.37500000E-03  1.16250000E-02  4.57250000E-02
 -2.37500000E-03  1.63750000E-02  4.57250000E-02
  2.37500000E-03  1.63750000E-02  4.57250000E-02
 -2.37500000E-03  1.16250000E-02  1.82900000E-01
  2.37500000E-03  1.16250000E-02  1.82900000E-01
 -2.37500000E-03  1.63750000E-02  1.82900000E-01
  2.37500000E-03  1.63750000E-02  1.82900000E-01
 -2.37500000E-03  1.16250000E-02  1.82900000E-01
  2.37500000E-03  1.16250000E-02  1.82900000E-01
 -2.37500000E-03  1.63750000E-02  1.82900000E-01
  2.37500000E-03  1.63750000E-02  1.82900000E-01
 -2.37500000E-03  1.16250000E-02  3.65800000E-01
  2.37500000E-03  1.16250000E-02  3.65800000E-01
 -2.37500000E-03  1.63750000E-02  3.65800000E-01
  2.37500000E-03  1.63750000E-02  3.65800000E-01
 -2.37500000E-03  1.16250000E-02  3.65800000E-01
  2.37500000E-03  1.16250000E-02  3.65800000E-01
 -2.37500000E-03  1.63750000E-02  3.65800000E-01
  2.37500000E-03  1.63750000E-02  3.65800000E-01
 -2.37500000E-03  1.16250000E-02  5.48700000E-01
  2.37500000E-03  1.16250000E-02  5.48700000E-01
 -2.37500000E-03  1.63750000E-02  5.48700000E-01
  2.37500000E-03  1.63750000E-02  5.48700000E-01
 -2.37500000E-03  1.16250000E-02  5.48700000E-01
  2.37500000E-03  1.16250000E-02  5.48700000E-01
 -2.37500000E-03  1.63750000E-02  5.48700000E-01
  2.37500000E-03  1.63750000E-02  5.48700000E-01
 -2.37500000E-03  1.16250000E-02  7.31600000E-01
  2.37500000E-03  1.16250000E-02  7.31600000E-01
 -2.37500000E-03  1.63750000E-02  7.31600000E-01
  2.37500000E-03  1.63750000E-02  7.31600000E-01
 -2.37500000E-03  1.16250000E-02  7.31600000E-01
  2.37500000E-03  1.16250000E-02  7.31600000E-01
 -2.37500000E-03  1.63750000E-02  7.31600000E-01
  2.37500000E-03  1.63750000E-02  7.31600000E-01
 -2.37500000E-03  1.16250000E-02  9.14500000E-01
  2.37500000E-03  1.16250000E-02  9.14500000E-01
 -2.37500000E-03  1.63750000E-02  9.14500000E-01
  2.37500000E-03  1.63750000E-02  9.14500000E-01
 -2.37500000E-03  1.16250000E-02  9.14500000E-01
  2.37500000E-03  1.16250000E-02  9.14500000E-01
 -2.37500000E-03  1.63750000E-02  9.14500000E-01
  2.37500000E-03  1.63750000E-02  9.14500000E-01
 -2.37500000E-03  1.16250000E-02  1.09740000E+00
  2.37500000E-03  1.16250000E-02  1.09740000E+00
 -2.37500000E-03  1.63750000E-02  1.09740000E+00
  2.37500000E-03  1.63750000E-02  1.09740000E+00
 -2.37500000E-03  1.16250000E-02  1.09740000E+00
  2.37500000E-03  1.16250000E-02  1.09740000E+00
 -2.37500000E-03  1.63750000E-02  1.09740000E+00
  2.37500000E-03  1.63750000E-02  1.09740000E+00
 -2.37500000E-03  1.16250000E-02  1.28030000E+00
  2.37500000E-03  1.16250000E-02  1.28030000E+00
 -2.37500000E-03  1.63750000E-02  1.28030000E+00
  2.37500000E-03  1.63750000E-02  1.28030000E+00
 -2.37500000E-03  1.16250000E-02  1.28030000E+00
  2.37500000E-03  1.16250000E-02  1.28030000E+00
 -2.37500000E-03  1.63750000E-02  1.28030000E+00
  2.37500000E-03  1.63750000E-02  1.28030000E+00
 -2.37500000E-03  1.16250000E-02  1.46320000E+00
  2.37500000E-03  1.16250000E-02  1.46320000E+00
 -2.37500000E-03  1.63750000E-02  1.46320000E+00
  2.37500000E-03  1.63750000E-02  1.46320000E+00
 -2.37500000E-03  1.16250000E-02  1.46320000E+00
  2.37500000E-03  1.16250000E-02  1.46320000E+00
 -2.37500000E-03  1.63750000E-02  1.46320000E+00
  2.37500000E-03  1.63750000E-02  1.46320000E+00
 -2.37500000E-03  1.16250000E-02  1.64610000E+00
  2.37500000E-03  1.16250000E-02  1.64610000E+00
 -2.37500000E-03  1.63750000E-02  1.64610000E+00
  2.37500000E-03  1.63750000E-02  1.64610000E+00
 -2.37500000E-03  1.16250000E-02  1.64610000E+00
  2.37500000E-03  1.16250000E-02  1.64610000E+00
 -2.37500000E-03  1.63750000E-02  1.64610000E+00
  2.37500000E-03  1.63750000E-02  1.64610000E+00
 -2.37500000E-03  1.16250000E-02  1.82900000E+00
  2.37500000E-03  1.16250000E-02  1.82900000E+00
 -2.37500000E-03  1.63750000E-02  1.82900000E+00
  2.37500000E-03  1.63750000E-02  1.82900000E+00
 -2.37500000E-03  1.16250000E-02  1.82900000E+00
  2.37500000E-03  1.16250000E-02  1.82900000E+00
 -2.37500000E-03  1.63750000E-02  1.82900000E+00
  2.37500000E-03  1.63750000E-02  1.82900000E+00
 -2.37500000E-03  1.16250000E-02  2.01190000E+00
  2.37500000E-03  1.16250000E-02  2.01190000E+00
 -2.37500000E-03  1.63750000E-02  2.01190000E+00
  2.37500000E-03  1.63750000E-02  2.01190000E+00
 -2.37500000E-03  1.16250000E-02  2.01190000E+00
  2.37500000E-03  1.16250000E-02  2.01190000E+00
 -2.37500000E-03  1.63750000E-02  2.01190000E+00
  2.37500000E-03  1.63750000E-02  2.01190000E+00
 -2.37500000E-03  1.16250000E-02  2.19480000E+00
  2.37500000E-03  1.16250000E-02  2.19480000E+00
 -2.37500000E-03  1.63750000E-02  2.19480000E+00
  2.37500000E-03  1.63750000E-02  2.19480000E+00
 -2.37500000E-03  1.16250000E-02  2.19480000E+00
  2.37500000E-03  1.16250000E-02  2.19480000E+00
 -2.37500000E-03  1.63750000E-02  2.19480000E+00
  2.37500000E-03  1.63750000E-02  2.19480000E+00
 -2.37500000E-03  1.16250000E-02  2.37770000E+00
  2.37500000E-03  1.16250000E-02  2.37770000E+00
 -2.37500000E-03  1.63750000E-02  2.37770000E+00
  2.37500000E-03  1.63750000E-02  2.37770000E+00
 -2.37500000E-03  1.16250000E-02  2.37770000E+00
  2.37500000E-03  1.16250000E-02  2.37770000E+00
 -2.37500000E-03  1.63750000E-02  2.37770000E+00
  2.37500000E-03  1.63750000E-02  2.37770000E+00
 -2.37500000E-03  1.16250000E-02  2.56060000E+00
  2.37500000E-03  1.16250000E-02  2.56060000E+00
 -2.37500000E-03  1.63750000E-02  2.56060000E+00
  2.37500000E-03  1.63750000E-02  2.56060000E+00
 -2.37500000E-03  1.16250000E-02  2.56060000E+00
  2.37500000E-03  1.16250000E-02  2.56060000E+00
 -2.37500000E-03  1.63750000E-02  2.56060000E+00
  2.37500000E-03  1.63750000E-02  2.56060000E+00
 -2.37500000E-03  1.16250000E-02  2.74350000E+00
  2.37500000E-03  1.16250000E-02  2.74350000E+00
 -2.37500000E-03  1.63750000E-02  2.74350000E+00
  2.37500000E-03  1.63750000E-02  2.74350000E+00
 -2.37500000E-03  1.16250000E-02  2.74350000E+00
  2.37500000E-03  1.16250000E-02  2.74350000E+00
 -2.37500000E-03  1.63750000E-02  2.74350000E+00
  2.37500000E-03  1.63750000E-02  2.74350000E+00
 -2.37500000E-03  1.16250000E-02  2.92640000E+00
  2.37500000E-03  1.16250000E-02  2.92640000E+00
 -2.37500000E-03  1.63750000E-02  2.92640000E+00
  2.37500000E-03  1.63750000E-02  2.92640000E+00
 -2.37500000E-03  1.16250000E-02  2.92640000E+00
  2.37500000E-03  1.16250000E-02  2.92640000E+00
 -2.37500000E-03  1.63750000E-02  2.92640000E+00
  2.37500000E-03  1.63750000E-02  2.92640000E+00
 -2.37500000E-03  1.16250000E-02  3.10930000E+00
  2.37500000E-03  1.16250000E-02  3.10930000E+00
 -2.37500000E-03  1.63750000E-02  3.10930000E+00
  2.37500000E-03  1.63750000E-02  3.10930000E+00
 -2.37500000E-03  1.16250000E-02  3.10930000E+00
  2.37500000E-03  1.16250000E-02  3.10930000E+00
 -2.37500000E-03  1.63750000E-02  3.10930000E+00
  2.37500000E-03  1.63750000E-02  3.10930000E+00
 -2.37500000E-03  1.16250000E-02  3.29220000E+00
  2.37500000E-03  1.16250000E-02  3.29220000E+00
 -2.37500000E-03  1.63750000E-02  3.29220000E+00
  2.37500000E-03  1.63750000E-02  3.29220000E+00
 -2.37500000E-03  1.16250000E-02  3.29220000E+00
  2.37500000E-03  1.16250000E-02  3.29220000E+00
 -2.37500000E-03  1.63750000E-02  3.29220000E+00
  2.37500000E-03  1.63750000E-02  3.29220000E+00
 -2.37500000E-03  1.16250000E-02  3.47510000E+00
  2.37500000E-03  1.16250000E-02  3.47510000E+00
 -2.37500000E-03  1.63750000E-02  3.47510000E+00
  2.37500000E-03  1.63750000E-02  3.47510000E+00
 -2.37500000E-03  1.16250000E-02  3.47510000E+00
  2.37500000E-03  1.16250000E-02  3.47510000E+00
 -2.37500000E-03  1.63750000E-02  3.47510000E+00
  2.37500000E-03  1.63750000E-02  3.47510000E+00
 -2.37500000E-03  1.16250000E-02  3.61227500E+00
  2.37500000E-03  1.16250000E-02  3.61227500E+00
 -2.37500000E-03  1.63750000E-02  3.61227500E+00
  2.37500000E-03  1.63750000E-02  3.61227500E+00
 -2.37500000E-03  1.16250000E-02  3.61227500E+00
  2.37500000E-03  1.16250000E-02  3.61227500E+00
 -2.37500000E-03  1.63750000E-02  3.61227500E+00
  2.37500000E-03  1.63750000E-02  3.61227500E+00
 -2.37500000E-03  1.16250000E-02  3.65800000E+00
  2.37500000E-03  1.16250000E-02  3.65800000E+00
 -2.37500000E-03  1.63750000E-02  3.65800000E+00
  2.37500000E-03  1.63750000E-02  3.65800000E+00
CELLS        22       198
         8         0         1         2         3         4         5         6         7
         8         8         9        10        11        12        13        14        15
         8        16        17        18        19        20        21        22        23
         8        24        25        26        27        28        29        30        31
         8        32        33        34        35        36        37        38        39
         8        40        41        42        43        44        45        46        47
         8        48        49        50        51        52        53        54        55
         8        56        57        58        59        60        61        62        63
         8        64        65        66        67        68        69        70        71
         8        72        73        74        75        76        77        78        79
         8        80        81        82        83        84        85        86        87
         8        88        89        90        91        92        93        94        95
         8        96        97        98        99       100       101       102       103
         8       104       105       106       107       108       109       110       111
         8       112       113       114       115       116       117       118       119
         8       120       121       122       123       124       125       126       127
         8       128       129       130       131       132       133       134       135
         8       136       137       138       139       140       141       142       143
         8       144       145       146       147       148       149       150       151
         8       152       153       154       155       156       157       158       159
         8       160       161       162       163       164       165       166       167
         8       168       169       170       171       172       173       174       175
CELL_TYPES      22
11
11
11
11
11
11
11
11
11
11
11
11
11
11
11
11
11
11
11
11
11
11
CELL_DATA      22
SCALARS Max_Clad_Outside_Temp_C float
LOOKUP_TABLE default
  2.937135250844111E+02
  2.941281249257955E+02
  2.945415022599340E+02
  2.949537905466419E+02
  2.953649703822471E+02
  2.957750222437795E+02
  2.961835867183174E+02
  2.965850988022907E+02
  2.969853755409052E+02
  2.973844606019687E+02
  2.977823440346402E+02
  2.981790094369791E+02
  2.985744385212120E+02
  2.989686122316399E+02
  2.993615111099862E+02
  2.997531154389328E+02
  3.001434053107579E+02
  3.005293349901312E+02
  3.009109535943954E+02
  3.012911826684876E+02
  3.016700325625640E+02
  3.016700424437976E+02
SCALARS Max_Clad_Inside_Temp_C float
LOOKUP_TABLE default
  2.988412422528225E+02
  2.992493295847942E+02
  2.996560985030142E+02
  3.000616899781984E+02
  3.004660845570880E+02
  3.008692626902015E+02
  3.012709317211772E+02
  3.016656680659521E+02
  3.020589694954619E+02
  3.024509678962610E+02
  3.028416676662092E+02
  3.032310574925173E+02
  3.036191214603462E+02
  3.040058418282006E+02
  3.043911999694559E+02
  3.047751767632859E+02
  3.051577527846547E+02
  3.055362500006538E+02
  3.059102968239400E+02
  3.062827905242145E+02
  3.066537865139113E+02
  3.066537962185730E+02
SCALARS Max_Fuel_Surface_Temp_C float
LOOKUP_TABLE default
  3.244921137836639E+02
  3.248701073598774E+02
  3.252463657030887E+02
  3.256210614562610E+02
  3.259941755241032E+02
  3.263656888253491E+02
  3.267354756330034E+02
  3.270990806808261E+02
  3.274603348968132E+02
  3.278197911869574E+02
  3.281775244888797E+02
  3.285335488418328E+02
  3.288878604536222E+02
  3.292404485921981E+02
  3.295912993353783E+02
  3.299403971390757E+02
  3.302877255816577E+02
  3.306318530223234E+02
  3.309714040890352E+02
  3.313086639343497E+02
  3.316439017524536E+02
  3.316439106506504E+02
SCALARS Fuel_Centerline_Temp_C float
LOOKUP_TABLE default
  3.784908915656474E+02
  3.787948739338765E+02
  3.790962187155658E+02
  3.793951628690900E+02
  3.796916908429872E+02
  3.799857873849825E+02
  3.802774375001814E+02
  3.805649143554608E+02
  3.808482178310841E+02
  3.811285981853776E+02
  3.814063227108075E+02
  3.816814769927875E+02
  3.819540928361981E+02
  3.822241811427577E+02
  3.824917432821339E+02
  3.827567758513186E+02
  3.830192729270836E+02
  3.832792014579782E+02
  3.835357393381914E+02
  3.837886691806467E+02
  3.840384435961838E+02
  3.840384505533288E+02
SCALARS Max_Heat_Flux_kW/m**2 float
LOOKUP_TABLE default
  0.000000000000000E+00
  0.000000000000000E+00
  0.000000000000000E+00
  0.000000000000000E+00
  0.000000000000000E+00
  0.000000000000000E+00
  0.000000000000000E+00
  0.000000000000000E+00
  0.000000000000000E+00
  0.000000000000000E+00
  0.000000000000000E+00
  0.000000000000000E+00
  0.000000000000000E+00
  0.000000000000000E+00
  0.000000000000000E+00
  0.000000000000000E+00
  0.000000000000000E+00
  0.000000000000000E+00
  0.000000000000000E+00
  0.000000000000000E+00
  0.000000000000000E+00
  0.000000000000000E+00
