# vtk DataFile Version 2.0
Rod Data
ASCII
DATASET UNSTRUCTURED_GRID
POINTS         176 double
 -2.37500000E-03  1.16250000E-02  0.00000000E+00
  2.37500000E-03  1.16250000E-02  0.00000000E+00
 -2.37500000E-03  1.63750000E-02  0.00000000E+00
  2.37500000E-03  1.63750000E-02  0.00000000E+00
 -2.37500000E-03  1.16250000E-02  4.57250000E-02
  2.37500000E-03  1.16250000E-02  4.57250000E-02
 -2.37500000E-03  1.63750000E-02  4.57250000E-02
  2.37500000E-03  1.63750000E-02  4.57250000E-02
 -2.37500000E-03  1.16250000E-02  4.57250000E-02
  2.37500000E-03  1.16250000E-02  4.57250000E-02
 -2.37500000E-03  1.63750000E-02  4.57250000E-02
  2.37500000E-03  1.63750000E-02  4.57250000E-02
 -2.37500000E-03  1.16250000E-02  1.82900000E-01
  2.37500000E-03  1.16250000E-02  1.82900000E-01
 -2.37500000E-03  1.63750000E-02  1.82900000E-01
  2.37500000E-03  1.63750000E-02  1.82900000E-01
 -2.37500000E-03  1.16250000E-02  1.82900000E-01
  2.37500000E-03  1.16250000E-02  1.82900000E-01
 -2.37500000E-03  1.63750000E-02  1.82900000E-01
  2.37500000E-03  1.63750000E-02  1.82900000E-01
 -2.37500000E-03  1.16250000E-02  3.65800000E-01
  2.37500000E-03  1.16250000E-02  3.65800000E-01
 -2.37500000E-03  1.63750000E-02  3.65800000E-01
  2.37500000E-03  1.63750000E-02  3.65800000E-01
 -2.37500000E-03  1.16250000E-02  3.65800000E-01
  2.37500000E-03  1.16250000E-02  3.65800000E-01
 -2.37500000E-03  1.63750000E-02  3.65800000E-01
  2.37500000E-03  1.63750000E-02  3.65800000E-01
 -2.37500000E-03  1.16250000E-02  5.48700000E-01
  2.37500000E-03  1.16250000E-02  5.48700000E-01
 -2.37500000E-03  1.63750000E-02  5.48700000E-01
  2.37500000E-03  1.63750000E-02  5.48700000E-01
 -2.37500000E-03  1.16250000E-02  5.48700000E-01
  2.37500000E-03  1.16250000E-02  5.48700000E-01
 -2.37500000E-03  1.63750000E-02  5.48700000E-01
  2.37500000E-03  1.63750000E-02  5.48700000E-01
 -2.37500000E-03  1.16250000E-02  7.31600000E-01
  2.37500000E-03  1.16250000E-02  7.31600000E-01
 -2.37500000E-03  1.63750000E-02  7.31600000E-01
  2.37500000E-03  1.63750000E-02  7.31600000E-01
 -2.37500000E-03  1.16250000E-02  7.31600000E-01
  2.37500000E-03  1.16250000E-02  7.31600000E-01
 -2.37500000E-03  1.63750000E-02  7.31600000E-01
  2.37500000E-03  1.63750000E-02  7.31600000E-01
 -2.37500000E-03  1.16250000E-02  9.14500000E-01
  2.37500000E-03  1.16250000E-02  9.14500000E-01
 -2.37500000E-03  1.63750000E-02  9.14500000E-01
  2.37500000E-03  1.63750000E-02  9.14500000E-01
 -2.37500000E-03  1.16250000E-02  9.14500000E-01
  2.37500000E-03  1.16250000E-02  9.14500000E-01
 -2.37500000E-03  1.63750000E-02  9.14500000E-01
  2.37500000E-03  1.63750000E-02  9.14500000E-01
 -2.37500000E-03  1.16250000E-02  1.09740000E+00
  2.37500000E-03  1.16250000E-02  1.09740000E+00
 -2.37500000E-03  1.63750000E-02  1.09740000E+00
  2.37500000E-03  1.63750000E-02  1.09740000E+00
 -2.37500000E-03  1.16250000E-02  1.09740000E+00
  2.37500000E-03  1.16250000E-02  1.09740000E+00
 -2.37500000E-03  1.63750000E-02  1.09740000E+00
  2.37500000E-03  1.63750000E-02  1.09740000E+00
 -2.37500000E-03  1.16250000E-02  1.28030000E+00
  2.37500000E-03  1.16250000E-02  1.28030000E+00
 -2.37500000E-03  1.63750000E-02  1.28030000E+00
  2.37500000E-03  1.63750000E-02  1.28030000E+00
 -2.37500000E-03  1.16250000E-02  1.28030000E+00
  2.37500000E-03  1.16250000E-02  1.28030000E+00
 -2.37500000E-03  1.63750000E-02  1.28030000E+00
  2.37500000E-03  1.63750000E-02  1.28030000E+00
 -2.37500000E-03  1.16250000E-02  1.46320000E+00
  2.37500000E-03  1.16250000E-02  1.46320000E+00
 -2.37500000E-03  1.63750000E-02  1.46320000E+00
  2.37500000E-03  1.63750000E-02  1.46320000E+00
 -2.37500000E-03  1.16250000E-02  1.46320000E+00
  2.37500000E-03  1.16250000E-02  1.46320000E+00
 -2.37500000E-03  1.63750000E-02  1.46320000E+00
  2.37500000E-03  1.63750000E-02  1.46320000E+00
 -2.37500000E-03  1.16250000E-02  1.64610000E+00
  2.37500000E-03  1.16250000E-02  1.64610000E+00
 -2.37500000E-03  1.63750000E-02  1.64610000E+00
  2.37500000E-03  1.63750000E-02  1.64610000E+00
 -2.37500000E-03  1.16250000E-02  1.64610000E+00
  2.37500000E-03  1.16250000E-02  1.64610000E+00
 -2.37500000E-03  1.63750000E-02  1.64610000E+00
  2.37500000E-03  1.63750000E-02  1.64610000E+00
 -2.37500000E-03  1.16250000E-02  1.82900000E+00
  2.37500000E-03  1.16250000E-02  1.82900000E+00
 -2.37500000E-03  1.63750000E-02  1.82900000E+00
  2.37500000E-03  1.63750000E-02  1.82900000E+00
 -2.37500000E-03  1.16250000E-02  1.82900000E+00
  2.37500000E-03  1.16250000E-02  1.82900000E+00
 -2.37500000E-03  1.63750000E-02  1.82900000E+00
  2.37500000E-03  1.63750000E-02  1.82900000E+00
 -2.37500000E-03  1.16250000E-02  2.01190000E+00
  2.37500000E-03  1.16250000E-02  2.01190000E+00
 -2.37500000E-03  1.63750000E-02  2.01190000E+00
  2.37500000E-03  1.63750000E-02  2.01190000E+00
 -2.37500000E-03  1.16250000E-02  2.01190000E+00
  2.37500000E-03  1.16250000E-02  2.01190000E+00
 -2.37500000E-03  1.63750000E-02  2.01190000E+00
  2.37500000E-03  1.63750000E-02  2.01190000E+00
 -2.37500000E-03  1.16250000E-02  2.19480000E+00
  2.37500000E-03  1.16250000E-02  2.19480000E+00
 -2.37500000E-03  1.63750000E-02  2.19480000E+00
  2.37500000E-03  1.63750000E-02  2.19480000E+00
 -2.37500000E-03  1.16250000E-02  2.19480000E+00
  2.37500000E-03  1.16250000E-02  2.19480000E+00
 -2.37500000E-03  1.63750000E-02  2.19480000E+00
  2.37500000E-03  1.63750000E-02  2.19480000E+00
 -2.37500000E-03  1.16250000E-02  2.37770000E+00
  2.37500000E-03  1.16250000E-02  2.37770000E+00
 -2.37500000E-03  1.63750000E-02  2.37770000E+00
  2.37500000E-03  1.63750000E-02  2.37770000E+00
 -2.37500000E-03  1.16250000E-02  2.37770000E+00
  2.37500000E-03  1.16250000E-02  2.37770000E+00
 -2.37500000E-03  1.63750000E-02  2.37770000E+00
  2.37500000E-03  1.63750000E-02  2.37770000E+00
 -2.37500000E-03  1.16250000E-02  2.56060000E+00
  2.37500000E-03  1.16250000E-02  2.56060000E+00
 -2.37500000E-03  1.63750000E-02  2.56060000E+00
  2.37500000E-03  1.63750000E-02  2.56060000E+00
 -2.37500000E-03  1.16250000E-02  2.56060000E+00
  2.37500000E-03  1.16250000E-02  2.56060000E+00
 -2.37500000E-03  1.63750000E-02  2.56060000E+00
  2.37500000E-03  1.63750000E-02  2.56060000E+00
 -2.37500000E-03  1.16250000E-02  2.74350000E+00
  2.37500000E-03  1.16250000E-02  2.74350000E+00
 -2.37500000E-03  1.63750000E-02  2.74350000E+00
  2.37500000E-03  1.63750000E-02  2.74350000E+00
 -2.37500000E-03  1.16250000E-02  2.74350000E+00
  2.37500000E-03  1.16250000E-02  2.74350000E+00
 -2.37500000E-03  1.63750000E-02  2.74350000E+00
  2.37500000E-03  1.63750000E-02  2.74350000E+00
 -2.37500000E-03  1.16250000E-02  2.92640000E+00
  2.37500000E-03  1.16250000E-02  2.92640000E+00
 -2.37500000E-03  1.63750000E-02  2.92640000E+00
  2.37500000E-03  1.63750000E-02  2.92640000E+00
 -2.37500000E-03  1.16250000E-02  2.92640000E+00
  2.37500000E-03  1.16250000E-02  2.92640000E+00
 -2.37500000E-03  1.63750000E-02  2.92640000E+00
  2.37500000E-03  1.63750000E-02  2.92640000E+00
 -2.37500000E-03  1.16250000E-02  3.10930000E+00
  2.37500000E-03  1.16250000E-02  3.10930000E+00
 -2.37500000E-03  1.63750000E-02  3.10930000E+00
  2.37500000E-03  1.63750000E-02  3.10930000E+00
 -2.37500000E-03  1.16250000E-02  3.10930000E+00
  2.37500000E-03  1.16250000E-02  3.10930000E+00
 -2.37500000E-03  1.63750000E-02  3.10930000E+00
  2.37500000E-03  1.63750000E-02  3.10930000E+00
 -2.37500000E-03  1.16250000E-02  3.29220000E+00
  2.37500000E-03  1.16250000E-02  3.29220000E+00
 -2.37500000E-03  1.63750000E-02  3.29220000E+00
  2.37500000E-03  1.63750000E-02  3.29220000E+00
 -2.37500000E-03  1.16250000E-02  3.29220000E+00
  2.37500000E-03  1.16250000E-02  3.29220000E+00
 -2.37500000E-03  1.63750000E-02  3.29220000E+00
  2.37500000E-03  1.63750000E-02  3.29220000E+00
 -2.37500000E-03  1.16250000E-02  3.47510000E+00
  2.37500000E-03  1.16250000E-02  3.47510000E+00
 -2.37500000E-03  1.63750000E-02  3.47510000E+00
  2.37500000E-03  1.63750000E-02  3.47510000E+00
 -2.37500000E-03  1.16250000E-02  3.47510000E+00
  2.37500000E-03  1.16250000E-02  3.47510000E+00
 -2.37500000E-03  1.63750000E-02  3.47510000E+00
  2.37500000E-03  1.63750000E-02  3.47510000E+00
 -2.37500000E-03  1.16250000E-02  3.61227500E+00
  2.37500000E-03  1.16250000E-02  3.61227500E+00
 -2.37500000E-03  1.63750000E-02  3.61227500E+00
  2.37500000E-03  1.63750000E-02  3.61227500E+00
 -2.37500000E-03  1.16250000E-02  3.61227500E+00
  2.37500000E-03  1.16250000E-02  3.61227500E+00
 -2.37500000E-03  1.63750000E-02  3.61227500E+00
  2.37500000E-03  1.63750000E-02  3.61227500E+00
 -2.37500000E-03  1.16250000E-02  3.65800000E+00
  2.37500000E-03  1.16250000E-02  3.65800000E+00
 -2.37500000E-03  1.63750000E-02  3.65800000E+00
  2.37500000E-03  1.63750000E-02  3.65800000E+00
CELLS        22       198
         8         0         1         2         3         4         5         6         7
         8         8         9        10        11        12        13        14        15
         8        16        17        18        19        20        21        22        23
         8        24        25        26        27        28        29        30        31
         8        32        33        34        35        36        37        38        39
         8        40        41        42        43        44        45        46        47
         8        48        49        50        51        52        53        54        55
         8        56        57        58        59        60        61        62        63
         8        64        65        66        67        68        69        70        71
         8        72        73        74        75        76        77        78        79
         8        80        81        82        83        84        85        86        87
         8        88        89        90        91        92        93        94        95
         8        96        97        98        99       100       101       102       103
         8       104       105       106       107       108       109       110       111
         8       112       113       114       115       116       117       118       119
         8       120       121       122       123       124       125       126       127
         8       128       129       130       131       132       133       134       135
         8       136       137       138       139       140       141       142       143
         8       144       145       146       147       148       149       150       151
         8       152       153       154       155       156       157       158       159
         8       160       161       162       163       164       165       166       167
         8       168       169       170       171       172       173       174       175
CELL_TYPES      22
11
11
11
11
11
11
11
11
11
11
11
11
11
11
11
11
11
11
11
11
11
11
CELL_DATA      22
SCALARS Max_Clad_Outside_Temp_C float
LOOKUP_TABLE default
  2.939668121237088E+02
  2.944157414483488E+02
  2.948646337809824E+02
  2.953134948196970E+02
  2.957623232451419E+02
  2.962111177100920E+02
  2.966564419438407E+02
  2.970981450027980E+02
  2.975398119971365E+02
  2.979814424559663E+02
  2.984230351053556E+02
  2.988645885288992E+02
  2.993061012488043E+02
  2.997475717456940E+02
  3.001889984650088E+02
  3.006303798194046E+02
  3.010651728477900E+02
  3.014994167234254E+02
  3.019336120903353E+02
  3.023677587021826E+02
  3.028018552522312E+02
  3.028018663425892E+02
SCALARS Max_Clad_Inside_Temp_C float
LOOKUP_TABLE default
  2.994405366834861E+02
  2.998891851101081E+02
  3.003377870050572E+02
  3.007863491312022E+02
  3.012348700028058E+02
  3.016833481044581E+02
  3.021283656670033E+02
  3.025697425640338E+02
  3.030110725254398E+02
  3.034523562530355E+02
  3.038935925549027E+02
  3.043347799293866E+02
  3.047759167631016E+02
  3.052170013804342E+02
  3.056580320601556E+02
  3.060990070420746E+02
  3.065334371531875E+02
  3.069672674410793E+02
  3.074010353764914E+02
  3.078347426052214E+02
  3.082683882303028E+02
  3.082683993106377E+02
SCALARS Max_Fuel_Surface_Temp_C float
LOOKUP_TABLE default
  3.267808723575827E+02
  3.272281808783372E+02
  3.276753982302480E+02
  3.281225361318715E+02
  3.285695923362574E+02
  3.290165645589721E+02
  3.294601219402047E+02
  3.298999481017843E+02
  3.303396761531144E+02
  3.307793125783783E+02
  3.312188566421651E+02
  3.316583064831769E+02
  3.320976598833727E+02
  3.325369144625769E+02
  3.329760677449968E+02
  3.334151171866872E+02
  3.338478244982026E+02
  3.342796975486077E+02
  3.347114430608797E+02
  3.351430719874945E+02
  3.355745854980946E+02
  3.355745965310462E+02
SCALARS Fuel_Centerline_Temp_C float
LOOKUP_TABLE default
  3.853941808895672E+02
  3.858379815491258E+02
  3.862815782399841E+02
  3.867249950771101E+02
  3.871682279699594E+02
  3.876112727734917E+02
  3.880510196007455E+02
  3.884868097789834E+02
  3.889223709959336E+02
  3.893577257885694E+02
  3.897928749256076E+02
  3.902278158229891E+02
  3.906625448741602E+02
  3.910970580414756E+02
  3.915313510592499E+02
  3.919654195181871E+02
  3.923936544365396E+02
  3.928204763490596E+02
  3.932470039044003E+02
  3.936732737862089E+02
  3.940992931097170E+02
  3.940993040206059E+02
SCALARS Max_Heat_Flux_kW/m**2 float
LOOKUP_TABLE default
  0.000000000000000E+00
  0.000000000000000E+00
  0.000000000000000E+00
  0.000000000000000E+00
  0.000000000000000E+00
  0.000000000000000E+00
  0.000000000000000E+00
  0.000000000000000E+00
  0.000000000000000E+00
  0.000000000000000E+00
  0.000000000000000E+00
  0.000000000000000E+00
  0.000000000000000E+00
  0.000000000000000E+00
  0.000000000000000E+00
  0.000000000000000E+00
  0.000000000000000E+00
  0.000000000000000E+00
  0.000000000000000E+00
  0.000000000000000E+00
  0.000000000000000E+00
  0.000000000000000E+00
