# vtk DataFile Version 2.0
Rod Data
ASCII
DATASET UNSTRUCTURED_GRID
POINTS         176 double
 -2.37500000E-03  1.16250000E-02  0.00000000E+00
  2.37500000E-03  1.16250000E-02  0.00000000E+00
 -2.37500000E-03  1.63750000E-02  0.00000000E+00
  2.37500000E-03  1.63750000E-02  0.00000000E+00
 -2.37500000E-03  1.16250000E-02  4.57250000E-02
  2.37500000E-03  1.16250000E-02  4.57250000E-02
 -2.37500000E-03  1.63750000E-02  4.57250000E-02
  2.37500000E-03  1.63750000E-02  4.57250000E-02
 -2.37500000E-03  1.16250000E-02  4.57250000E-02
  2.37500000E-03  1.16250000E-02  4.57250000E-02
 -2.37500000E-03  1.63750000E-02  4.57250000E-02
  2.37500000E-03  1.63750000E-02  4.57250000E-02
 -2.37500000E-03  1.16250000E-02  1.82900000E-01
  2.37500000E-03  1.16250000E-02  1.82900000E-01
 -2.37500000E-03  1.63750000E-02  1.82900000E-01
  2.37500000E-03  1.63750000E-02  1.82900000E-01
 -2.37500000E-03  1.16250000E-02  1.82900000E-01
  2.37500000E-03  1.16250000E-02  1.82900000E-01
 -2.37500000E-03  1.63750000E-02  1.82900000E-01
  2.37500000E-03  1.63750000E-02  1.82900000E-01
 -2.37500000E-03  1.16250000E-02  3.65800000E-01
  2.37500000E-03  1.16250000E-02  3.65800000E-01
 -2.37500000E-03  1.63750000E-02  3.65800000E-01
  2.37500000E-03  1.63750000E-02  3.65800000E-01
 -2.37500000E-03  1.16250000E-02  3.65800000E-01
  2.37500000E-03  1.16250000E-02  3.65800000E-01
 -2.37500000E-03  1.63750000E-02  3.65800000E-01
  2.37500000E-03  1.63750000E-02  3.65800000E-01
 -2.37500000E-03  1.16250000E-02  5.48700000E-01
  2.37500000E-03  1.16250000E-02  5.48700000E-01
 -2.37500000E-03  1.63750000E-02  5.48700000E-01
  2.37500000E-03  1.63750000E-02  5.48700000E-01
 -2.37500000E-03  1.16250000E-02  5.48700000E-01
  2.37500000E-03  1.16250000E-02  5.48700000E-01
 -2.37500000E-03  1.63750000E-02  5.48700000E-01
  2.37500000E-03  1.63750000E-02  5.48700000E-01
 -2.37500000E-03  1.16250000E-02  7.31600000E-01
  2.37500000E-03  1.16250000E-02  7.31600000E-01
 -2.37500000E-03  1.63750000E-02  7.31600000E-01
  2.37500000E-03  1.63750000E-02  7.31600000E-01
 -2.37500000E-03  1.16250000E-02  7.31600000E-01
  2.37500000E-03  1.16250000E-02  7.31600000E-01
 -2.37500000E-03  1.63750000E-02  7.31600000E-01
  2.37500000E-03  1.63750000E-02  7.31600000E-01
 -2.37500000E-03  1.16250000E-02  9.14500000E-01
  2.37500000E-03  1.16250000E-02  9.14500000E-01
 -2.37500000E-03  1.63750000E-02  9.14500000E-01
  2.37500000E-03  1.63750000E-02  9.14500000E-01
 -2.37500000E-03  1.16250000E-02  9.14500000E-01
  2.37500000E-03  1.16250000E-02  9.14500000E-01
 -2.37500000E-03  1.63750000E-02  9.14500000E-01
  2.37500000E-03  1.63750000E-02  9.14500000E-01
 -2.37500000E-03  1.16250000E-02  1.09740000E+00
  2.37500000E-03  1.16250000E-02  1.09740000E+00
 -2.37500000E-03  1.63750000E-02  1.09740000E+00
  2.37500000E-03  1.63750000E-02  1.09740000E+00
 -2.37500000E-03  1.16250000E-02  1.09740000E+00
  2.37500000E-03  1.16250000E-02  1.09740000E+00
 -2.37500000E-03  1.63750000E-02  1.09740000E+00
  2.37500000E-03  1.63750000E-02  1.09740000E+00
 -2.37500000E-03  1.16250000E-02  1.28030000E+00
  2.37500000E-03  1.16250000E-02  1.28030000E+00
 -2.37500000E-03  1.63750000E-02  1.28030000E+00
  2.37500000E-03  1.63750000E-02  1.28030000E+00
 -2.37500000E-03  1.16250000E-02  1.28030000E+00
  2.37500000E-03  1.16250000E-02  1.28030000E+00
 -2.37500000E-03  1.63750000E-02  1.28030000E+00
  2.37500000E-03  1.63750000E-02  1.28030000E+00
 -2.37500000E-03  1.16250000E-02  1.46320000E+00
  2.37500000E-03  1.16250000E-02  1.46320000E+00
 -2.37500000E-03  1.63750000E-02  1.46320000E+00
  2.37500000E-03  1.63750000E-02  1.46320000E+00
 -2.37500000E-03  1.16250000E-02  1.46320000E+00
  2.37500000E-03  1.16250000E-02  1.46320000E+00
 -2.37500000E-03  1.63750000E-02  1.46320000E+00
  2.37500000E-03  1.63750000E-02  1.46320000E+00
 -2.37500000E-03  1.16250000E-02  1.64610000E+00
  2.37500000E-03  1.16250000E-02  1.64610000E+00
 -2.37500000E-03  1.63750000E-02  1.64610000E+00
  2.37500000E-03  1.63750000E-02  1.64610000E+00
 -2.37500000E-03  1.16250000E-02  1.64610000E+00
  2.37500000E-03  1.16250000E-02  1.64610000E+00
 -2.37500000E-03  1.63750000E-02  1.64610000E+00
  2.37500000E-03  1.63750000E-02  1.64610000E+00
 -2.37500000E-03  1.16250000E-02  1.82900000E+00
  2.37500000E-03  1.16250000E-02  1.82900000E+00
 -2.37500000E-03  1.63750000E-02  1.82900000E+00
  2.37500000E-03  1.63750000E-02  1.82900000E+00
 -2.37500000E-03  1.16250000E-02  1.82900000E+00
  2.37500000E-03  1.16250000E-02  1.82900000E+00
 -2.37500000E-03  1.63750000E-02  1.82900000E+00
  2.37500000E-03  1.63750000E-02  1.82900000E+00
 -2.37500000E-03  1.16250000E-02  2.01190000E+00
  2.37500000E-03  1.16250000E-02  2.01190000E+00
 -2.37500000E-03  1.63750000E-02  2.01190000E+00
  2.37500000E-03  1.63750000E-02  2.01190000E+00
 -2.37500000E-03  1.16250000E-02  2.01190000E+00
  2.37500000E-03  1.16250000E-02  2.01190000E+00
 -2.37500000E-03  1.63750000E-02  2.01190000E+00
  2.37500000E-03  1.63750000E-02  2.01190000E+00
 -2.37500000E-03  1.16250000E-02  2.19480000E+00
  2.37500000E-03  1.16250000E-02  2.19480000E+00
 -2.37500000E-03  1.63750000E-02  2.19480000E+00
  2.37500000E-03  1.63750000E-02  2.19480000E+00
 -2.37500000E-03  1.16250000E-02  2.19480000E+00
  2.37500000E-03  1.16250000E-02  2.19480000E+00
 -2.37500000E-03  1.63750000E-02  2.19480000E+00
  2.37500000E-03  1.63750000E-02  2.19480000E+00
 -2.37500000E-03  1.16250000E-02  2.37770000E+00
  2.37500000E-03  1.16250000E-02  2.37770000E+00
 -2.37500000E-03  1.63750000E-02  2.37770000E+00
  2.37500000E-03  1.63750000E-02  2.37770000E+00
 -2.37500000E-03  1.16250000E-02  2.37770000E+00
  2.37500000E-03  1.16250000E-02  2.37770000E+00
 -2.37500000E-03  1.63750000E-02  2.37770000E+00
  2.37500000E-03  1.63750000E-02  2.37770000E+00
 -2.37500000E-03  1.16250000E-02  2.56060000E+00
  2.37500000E-03  1.16250000E-02  2.56060000E+00
 -2.37500000E-03  1.63750000E-02  2.56060000E+00
  2.37500000E-03  1.63750000E-02  2.56060000E+00
 -2.37500000E-03  1.16250000E-02  2.56060000E+00
  2.37500000E-03  1.16250000E-02  2.56060000E+00
 -2.37500000E-03  1.63750000E-02  2.56060000E+00
  2.37500000E-03  1.63750000E-02  2.56060000E+00
 -2.37500000E-03  1.16250000E-02  2.74350000E+00
  2.37500000E-03  1.16250000E-02  2.74350000E+00
 -2.37500000E-03  1.63750000E-02  2.74350000E+00
  2.37500000E-03  1.63750000E-02  2.74350000E+00
 -2.37500000E-03  1.16250000E-02  2.74350000E+00
  2.37500000E-03  1.16250000E-02  2.74350000E+00
 -2.37500000E-03  1.63750000E-02  2.74350000E+00
  2.37500000E-03  1.63750000E-02  2.74350000E+00
 -2.37500000E-03  1.16250000E-02  2.92640000E+00
  2.37500000E-03  1.16250000E-02  2.92640000E+00
 -2.37500000E-03  1.63750000E-02  2.92640000E+00
  2.37500000E-03  1.63750000E-02  2.92640000E+00
 -2.37500000E-03  1.16250000E-02  2.92640000E+00
  2.37500000E-03  1.16250000E-02  2.92640000E+00
 -2.37500000E-03  1.63750000E-02  2.92640000E+00
  2.37500000E-03  1.63750000E-02  2.92640000E+00
 -2.37500000E-03  1.16250000E-02  3.10930000E+00
  2.37500000E-03  1.16250000E-02  3.10930000E+00
 -2.37500000E-03  1.63750000E-02  3.10930000E+00
  2.37500000E-03  1.63750000E-02  3.10930000E+00
 -2.37500000E-03  1.16250000E-02  3.10930000E+00
  2.37500000E-03  1.16250000E-02  3.10930000E+00
 -2.37500000E-03  1.63750000E-02  3.10930000E+00
  2.37500000E-03  1.63750000E-02  3.10930000E+00
 -2.37500000E-03  1.16250000E-02  3.29220000E+00
  2.37500000E-03  1.16250000E-02  3.29220000E+00
 -2.37500000E-03  1.63750000E-02  3.29220000E+00
  2.37500000E-03  1.63750000E-02  3.29220000E+00
 -2.37500000E-03  1.16250000E-02  3.29220000E+00
  2.37500000E-03  1.16250000E-02  3.29220000E+00
 -2.37500000E-03  1.63750000E-02  3.29220000E+00
  2.37500000E-03  1.63750000E-02  3.29220000E+00
 -2.37500000E-03  1.16250000E-02  3.47510000E+00
  2.37500000E-03  1.16250000E-02  3.47510000E+00
 -2.37500000E-03  1.63750000E-02  3.47510000E+00
  2.37500000E-03  1.63750000E-02  3.47510000E+00
 -2.37500000E-03  1.16250000E-02  3.47510000E+00
  2.37500000E-03  1.16250000E-02  3.47510000E+00
 -2.37500000E-03  1.63750000E-02  3.47510000E+00
  2.37500000E-03  1.63750000E-02  3.47510000E+00
 -2.37500000E-03  1.16250000E-02  3.61227500E+00
  2.37500000E-03  1.16250000E-02  3.61227500E+00
 -2.37500000E-03  1.63750000E-02  3.61227500E+00
  2.37500000E-03  1.63750000E-02  3.61227500E+00
 -2.37500000E-03  1.16250000E-02  3.61227500E+00
  2.37500000E-03  1.16250000E-02  3.61227500E+00
 -2.37500000E-03  1.63750000E-02  3.61227500E+00
  2.37500000E-03  1.63750000E-02  3.61227500E+00
 -2.37500000E-03  1.16250000E-02  3.65800000E+00
  2.37500000E-03  1.16250000E-02  3.65800000E+00
 -2.37500000E-03  1.63750000E-02  3.65800000E+00
  2.37500000E-03  1.63750000E-02  3.65800000E+00
CELLS        22       198
         8         0         1         2         3         4         5         6         7
         8         8         9        10        11        12        13        14        15
         8        16        17        18        19        20        21        22        23
         8        24        25        26        27        28        29        30        31
         8        32        33        34        35        36        37        38        39
         8        40        41        42        43        44        45        46        47
         8        48        49        50        51        52        53        54        55
         8        56        57        58        59        60        61        62        63
         8        64        65        66        67        68        69        70        71
         8        72        73        74        75        76        77        78        79
         8        80        81        82        83        84        85        86        87
         8        88        89        90        91        92        93        94        95
         8        96        97        98        99       100       101       102       103
         8       104       105       106       107       108       109       110       111
         8       112       113       114       115       116       117       118       119
         8       120       121       122       123       124       125       126       127
         8       128       129       130       131       132       133       134       135
         8       136       137       138       139       140       141       142       143
         8       144       145       146       147       148       149       150       151
         8       152       153       154       155       156       157       158       159
         8       160       161       162       163       164       165       166       167
         8       168       169       170       171       172       173       174       175
CELL_TYPES      22
11
11
11
11
11
11
11
11
11
11
11
11
11
11
11
11
11
11
11
11
11
11
CELL_DATA      22
SCALARS Max_Clad_Outside_Temp_C float
LOOKUP_TABLE default
  2.937867303363318E+02
  2.942108718843137E+02
  2.946340696787696E+02
  2.950564296850110E+02
  2.954779357461106E+02
  2.958985715749721E+02
  2.963171482312096E+02
  2.967295503122232E+02
  2.971410074636685E+02
  2.975515420908253E+02
  2.979611445665315E+02
  2.983698006196521E+02
  2.987774945737824E+02
  2.991842101527512E+02
  2.995899307529698E+02
  2.999946395559620E+02
  3.003983195816550E+02
  3.007951375080522E+02
  3.011904537520686E+02
  3.015846886243594E+02
  3.019778416822023E+02
  3.019778518735309E+02
SCALARS Max_Clad_Inside_Temp_C float
LOOKUP_TABLE default
  2.990144508762725E+02
  2.994334011866347E+02
  2.998513213012752E+02
  3.002683244142112E+02
  3.006843940913389E+02
  3.010995137847800E+02
  3.015126042365009E+02
  3.019195287756874E+02
  3.023253570735176E+02
  3.027301662187155E+02
  3.031339565506780E+02
  3.035367171874096E+02
  3.039384339115999E+02
  3.043390911605031E+02
  3.047386727071916E+02
  3.051371619441422E+02
  3.055345420174650E+02
  3.059254314028969E+02
  3.063145164091890E+02
  3.067023917845559E+02
  3.070890824049370E+02
  3.070890924516471E+02
SCALARS Max_Fuel_Surface_Temp_C float
LOOKUP_TABLE default
  3.251536128579804E+02
  3.255484387047567E+02
  3.259418523695037E+02
  3.263339982348949E+02
  3.267248590414263E+02
  3.271144174956992E+02
  3.275020075374540E+02
  3.278836104294690E+02
  3.282634168237087E+02
  3.286417704137374E+02
  3.290187207446936E+02
  3.293942740123447E+02
  3.297684236449599E+02
  3.301411580792707E+02
  3.305124634397383E+02
  3.308823246580454E+02
  3.312507260028194E+02
  3.316140836863228E+02
  3.319745786039621E+02
  3.323332805970567E+02
  3.326903378972227E+02
  3.326903472793637E+02
SCALARS Fuel_Centerline_Temp_C float
LOOKUP_TABLE default
  3.804860855266915E+02
  3.808208896982280E+02
  3.811534229370190E+02
  3.814838963836449E+02
  3.818122928181897E+02
  3.821385952003560E+02
  3.824627404644862E+02
  3.827819157167734E+02
  3.830976170292774E+02
  3.834108568688623E+02
  3.837218211511551E+02
  3.840305649656468E+02
  3.843371048553200E+02
  3.846414423884547E+02
  3.849435722985002E+02
  3.852434858889693E+02
  3.855411726445172E+02
  3.858361009343417E+02
  3.861271148841720E+02
  3.864149964411959E+02
  3.867001785369889E+02
  3.867001862994678E+02
SCALARS Max_Heat_Flux_kW/m**2 float
LOOKUP_TABLE default
  0.000000000000000E+00
  0.000000000000000E+00
  0.000000000000000E+00
  0.000000000000000E+00
  0.000000000000000E+00
  0.000000000000000E+00
  0.000000000000000E+00
  0.000000000000000E+00
  0.000000000000000E+00
  0.000000000000000E+00
  0.000000000000000E+00
  0.000000000000000E+00
  0.000000000000000E+00
  0.000000000000000E+00
  0.000000000000000E+00
  0.000000000000000E+00
  0.000000000000000E+00
  0.000000000000000E+00
  0.000000000000000E+00
  0.000000000000000E+00
  0.000000000000000E+00
  0.000000000000000E+00
