# vtk DataFile Version 2.0
Scalar Data
ASCII
DATASET UNSTRUCTURED_GRID
POINTS         160 double
 -7.00000000E-03 -7.00000000E-03  0.00000000E+00
  0.00000000E+00 -7.00000000E-03  0.00000000E+00
 -7.00000000E-03  0.00000000E+00  0.00000000E+00
  0.00000000E+00  0.00000000E+00  0.00000000E+00
 -7.00000000E-03 -7.00000000E-03  1.82900000E-01
  0.00000000E+00 -7.00000000E-03  1.82900000E-01
 -7.00000000E-03  0.00000000E+00  1.82900000E-01
  0.00000000E+00  0.00000000E+00  1.82900000E-01
 -7.00000000E-03 -7.00000000E-03  1.82900000E-01
  0.00000000E+00 -7.00000000E-03  1.82900000E-01
 -7.00000000E-03  0.00000000E+00  1.82900000E-01
  0.00000000E+00  0.00000000E+00  1.82900000E-01
 -7.00000000E-03 -7.00000000E-03  3.65800000E-01
  0.00000000E+00 -7.00000000E-03  3.65800000E-01
 -7.00000000E-03  0.00000000E+00  3.65800000E-01
  0.00000000E+00  0.00000000E+00  3.65800000E-01
 -7.00000000E-03 -7.00000000E-03  3.65800000E-01
  0.00000000E+00 -7.00000000E-03  3.65800000E-01
 -7.00000000E-03  0.00000000E+00  3.65800000E-01
  0.00000000E+00  0.00000000E+00  3.65800000E-01
 -7.00000000E-03 -7.00000000E-03  5.48700000E-01
  0.00000000E+00 -7.00000000E-03  5.48700000E-01
 -7.00000000E-03  0.00000000E+00  5.48700000E-01
  0.00000000E+00  0.00000000E+00  5.48700000E-01
 -7.00000000E-03 -7.00000000E-03  5.48700000E-01
  0.00000000E+00 -7.00000000E-03  5.48700000E-01
 -7.00000000E-03  0.00000000E+00  5.48700000E-01
  0.00000000E+00  0.00000000E+00  5.48700000E-01
 -7.00000000E-03 -7.00000000E-03  7.31600000E-01
  0.00000000E+00 -7.00000000E-03  7.31600000E-01
 -7.00000000E-03  0.00000000E+00  7.31600000E-01
  0.00000000E+00  0.00000000E+00  7.31600000E-01
 -7.00000000E-03 -7.00000000E-03  7.31600000E-01
  0.00000000E+00 -7.00000000E-03  7.31600000E-01
 -7.00000000E-03  0.00000000E+00  7.31600000E-01
  0.00000000E+00  0.00000000E+00  7.31600000E-01
 -7.00000000E-03 -7.00000000E-03  9.14500000E-01
  0.00000000E+00 -7.00000000E-03  9.14500000E-01
 -7.00000000E-03  0.00000000E+00  9.14500000E-01
  0.00000000E+00  0.00000000E+00  9.14500000E-01
 -7.00000000E-03 -7.00000000E-03  9.14500000E-01
  0.00000000E+00 -7.00000000E-03  9.14500000E-01
 -7.00000000E-03  0.00000000E+00  9.14500000E-01
  0.00000000E+00  0.00000000E+00  9.14500000E-01
 -7.00000000E-03 -7.00000000E-03  1.09740000E+00
  0.00000000E+00 -7.00000000E-03  1.09740000E+00
 -7.00000000E-03  0.00000000E+00  1.09740000E+00
  0.00000000E+00  0.00000000E+00  1.09740000E+00
 -7.00000000E-03 -7.00000000E-03  1.09740000E+00
  0.00000000E+00 -7.00000000E-03  1.09740000E+00
 -7.00000000E-03  0.00000000E+00  1.09740000E+00
  0.00000000E+00  0.00000000E+00  1.09740000E+00
 -7.00000000E-03 -7.00000000E-03  1.28030000E+00
  0.00000000E+00 -7.00000000E-03  1.28030000E+00
 -7.00000000E-03  0.00000000E+00  1.28030000E+00
  0.00000000E+00  0.00000000E+00  1.28030000E+00
 -7.00000000E-03 -7.00000000E-03  1.28030000E+00
  0.00000000E+00 -7.00000000E-03  1.28030000E+00
 -7.00000000E-03  0.00000000E+00  1.28030000E+00
  0.00000000E+00  0.00000000E+00  1.28030000E+00
 -7.00000000E-03 -7.00000000E-03  1.46320000E+00
  0.00000000E+00 -7.00000000E-03  1.46320000E+00
 -7.00000000E-03  0.00000000E+00  1.46320000E+00
  0.00000000E+00  0.00000000E+00  1.46320000E+00
 -7.00000000E-03 -7.00000000E-03  1.46320000E+00
  0.00000000E+00 -7.00000000E-03  1.46320000E+00
 -7.00000000E-03  0.00000000E+00  1.46320000E+00
  0.00000000E+00  0.00000000E+00  1.46320000E+00
 -7.00000000E-03 -7.00000000E-03  1.64610000E+00
  0.00000000E+00 -7.00000000E-03  1.64610000E+00
 -7.00000000E-03  0.00000000E+00  1.64610000E+00
  0.00000000E+00  0.00000000E+00  1.64610000E+00
 -7.00000000E-03 -7.00000000E-03  1.64610000E+00
  0.00000000E+00 -7.00000000E-03  1.64610000E+00
 -7.00000000E-03  0.00000000E+00  1.64610000E+00
  0.00000000E+00  0.00000000E+00  1.64610000E+00
 -7.00000000E-03 -7.00000000E-03  1.82900000E+00
  0.00000000E+00 -7.00000000E-03  1.82900000E+00
 -7.00000000E-03  0.00000000E+00  1.82900000E+00
  0.00000000E+00  0.00000000E+00  1.82900000E+00
 -7.00000000E-03 -7.00000000E-03  1.82900000E+00
  0.00000000E+00 -7.00000000E-03  1.82900000E+00
 -7.00000000E-03  0.00000000E+00  1.82900000E+00
  0.00000000E+00  0.00000000E+00  1.82900000E+00
 -7.00000000E-03 -7.00000000E-03  2.01190000E+00
  0.00000000E+00 -7.00000000E-03  2.01190000E+00
 -7.00000000E-03  0.00000000E+00  2.01190000E+00
  0.00000000E+00  0.00000000E+00  2.01190000E+00
 -7.00000000E-03 -7.00000000E-03  2.01190000E+00
  0.00000000E+00 -7.00000000E-03  2.01190000E+00
 -7.00000000E-03  0.00000000E+00  2.01190000E+00
  0.00000000E+00  0.00000000E+00  2.01190000E+00
 -7.00000000E-03 -7.00000000E-03  2.19480000E+00
  0.00000000E+00 -7.00000000E-03  2.19480000E+00
 -7.00000000E-03  0.00000000E+00  2.19480000E+00
  0.00000000E+00  0.00000000E+00  2.19480000E+00
 -7.00000000E-03 -7.00000000E-03  2.19480000E+00
  0.00000000E+00 -7.00000000E-03  2.19480000E+00
 -7.00000000E-03  0.00000000E+00  2.19480000E+00
  0.00000000E+00  0.00000000E+00  2.19480000E+00
 -7.00000000E-03 -7.00000000E-03  2.37770000E+00
  0.00000000E+00 -7.00000000E-03  2.37770000E+00
 -7.00000000E-03  0.00000000E+00  2.37770000E+00
  0.00000000E+00  0.00000000E+00  2.37770000E+00
 -7.00000000E-03 -7.00000000E-03  2.37770000E+00
  0.00000000E+00 -7.00000000E-03  2.37770000E+00
 -7.00000000E-03  0.00000000E+00  2.37770000E+00
  0.00000000E+00  0.00000000E+00  2.37770000E+00
 -7.00000000E-03 -7.00000000E-03  2.56060000E+00
  0.00000000E+00 -7.00000000E-03  2.56060000E+00
 -7.00000000E-03  0.00000000E+00  2.56060000E+00
  0.00000000E+00  0.00000000E+00  2.56060000E+00
 -7.00000000E-03 -7.00000000E-03  2.56060000E+00
  0.00000000E+00 -7.00000000E-03  2.56060000E+00
 -7.00000000E-03  0.00000000E+00  2.56060000E+00
  0.00000000E+00  0.00000000E+00  2.56060000E+00
 -7.00000000E-03 -7.00000000E-03  2.74350000E+00
  0.00000000E+00 -7.00000000E-03  2.74350000E+00
 -7.00000000E-03  0.00000000E+00  2.74350000E+00
  0.00000000E+00  0.00000000E+00  2.74350000E+00
 -7.00000000E-03 -7.00000000E-03  2.74350000E+00
  0.00000000E+00 -7.00000000E-03  2.74350000E+00
 -7.00000000E-03  0.00000000E+00  2.74350000E+00
  0.00000000E+00  0.00000000E+00  2.74350000E+00
 -7.00000000E-03 -7.00000000E-03  2.92640000E+00
  0.00000000E+00 -7.00000000E-03  2.92640000E+00
 -7.00000000E-03  0.00000000E+00  2.92640000E+00
  0.00000000E+00  0.00000000E+00  2.92640000E+00
 -7.00000000E-03 -7.00000000E-03  2.92640000E+00
  0.00000000E+00 -7.00000000E-03  2.92640000E+00
 -7.00000000E-03  0.00000000E+00  2.92640000E+00
  0.00000000E+00  0.00000000E+00  2.92640000E+00
 -7.00000000E-03 -7.00000000E-03  3.10930000E+00
  0.00000000E+00 -7.00000000E-03  3.10930000E+00
 -7.00000000E-03  0.00000000E+00  3.10930000E+00
  0.00000000E+00  0.00000000E+00  3.10930000E+00
 -7.00000000E-03 -7.00000000E-03  3.10930000E+00
  0.00000000E+00 -7.00000000E-03  3.10930000E+00
 -7.00000000E-03  0.00000000E+00  3.10930000E+00
  0.00000000E+00  0.00000000E+00  3.10930000E+00
 -7.00000000E-03 -7.00000000E-03  3.29220000E+00
  0.00000000E+00 -7.00000000E-03  3.29220000E+00
 -7.00000000E-03  0.00000000E+00  3.29220000E+00
  0.00000000E+00  0.00000000E+00  3.29220000E+00
 -7.00000000E-03 -7.00000000E-03  3.29220000E+00
  0.00000000E+00 -7.00000000E-03  3.29220000E+00
 -7.00000000E-03  0.00000000E+00  3.29220000E+00
  0.00000000E+00  0.00000000E+00  3.29220000E+00
 -7.00000000E-03 -7.00000000E-03  3.47510000E+00
  0.00000000E+00 -7.00000000E-03  3.47510000E+00
 -7.00000000E-03  0.00000000E+00  3.47510000E+00
  0.00000000E+00  0.00000000E+00  3.47510000E+00
 -7.00000000E-03 -7.00000000E-03  3.47510000E+00
  0.00000000E+00 -7.00000000E-03  3.47510000E+00
 -7.00000000E-03  0.00000000E+00  3.47510000E+00
  0.00000000E+00  0.00000000E+00  3.47510000E+00
 -7.00000000E-03 -7.00000000E-03  3.65800000E+00
  0.00000000E+00 -7.00000000E-03  3.65800000E+00
 -7.00000000E-03  0.00000000E+00  3.65800000E+00
  0.00000000E+00  0.00000000E+00  3.65800000E+00
CELLS        20       180
         8         0         1         2         3         4         5         6         7
         8         8         9        10        11        12        13        14        15
         8        16        17        18        19        20        21        22        23
         8        24        25        26        27        28        29        30        31
         8        32        33        34        35        36        37        38        39
         8        40        41        42        43        44        45        46        47
         8        48        49        50        51        52        53        54        55
         8        56        57        58        59        60        61        62        63
         8        64        65        66        67        68        69        70        71
         8        72        73        74        75        76        77        78        79
         8        80        81        82        83        84        85        86        87
         8        88        89        90        91        92        93        94        95
         8        96        97        98        99       100       101       102       103
         8       104       105       106       107       108       109       110       111
         8       112       113       114       115       116       117       118       119
         8       120       121       122       123       124       125       126       127
         8       128       129       130       131       132       133       134       135
         8       136       137       138       139       140       141       142       143
         8       144       145       146       147       148       149       150       151
         8       152       153       154       155       156       157       158       159
CELL_TYPES      20
11
11
11
11
11
11
11
11
11
11
11
11
11
11
11
11
11
11
11
11
CELL_DATA      20
SCALARS Liquid_Volume_Fraction float
LOOKUP_TABLE default
  1.0000E+00
  1.0000E+00
  1.0000E+00
  1.0000E+00
  1.0000E+00
  1.0000E+00
  1.0000E+00
  1.0000E+00
  1.0000E+00
  1.0000E+00
  1.0000E+00
  1.0000E+00
  1.0000E+00
  1.0000E+00
  1.0000E+00
  1.0000E+00
  1.0000E+00
  1.0000E+00
  1.0000E+00
  1.0000E+00
SCALARS Entrained_Volume_Fraction float
LOOKUP_TABLE default
  5.0000E-07
  5.0000E-07
  5.0000E-07
  5.0000E-07
  5.0000E-07
  5.0000E-07
  5.0000E-07
  5.0000E-07
  5.0000E-07
  5.0000E-07
  5.0000E-07
  5.0000E-07
  5.0000E-07
  5.0000E-07
  5.0000E-07
  5.0000E-07
  5.0000E-07
  5.0000E-07
  5.0000E-07
  5.0000E-07
SCALARS Vapor_Volume_Fraction float
LOOKUP_TABLE default
  1.0000E-06
  1.0000E-06
  1.0000E-06
  1.0000E-06
  1.0000E-06
  1.0000E-06
  1.0000E-06
  1.0000E-06
  1.0000E-06
  1.0000E-06
  1.0000E-06
  1.0000E-06
  1.0000E-06
  1.0000E-06
  1.0000E-06
  1.0000E-06
  1.0000E-06
  1.0000E-06
  1.0000E-06
  1.0000E-06
SCALARS Pressure float
LOOKUP_TABLE default
  1.6564E+02
  1.6561E+02
  1.6557E+02
  1.6554E+02
  1.6551E+02
  1.6548E+02
  1.6545E+02
  1.6541E+02
  1.6538E+02
  1.6535E+02
  1.6532E+02
  1.6529E+02
  1.6525E+02
  1.6522E+02
  1.6519E+02
  1.6516E+02
  1.6513E+02
  1.6510E+02
  1.6506E+02
  1.6503E+02
SCALARS Liquid_Enthalpy float
LOOKUP_TABLE default
  1.2916E+03
  1.2940E+03
  1.2965E+03
  1.2989E+03
  1.3013E+03
  1.3038E+03
  1.3062E+03
  1.3087E+03
  1.3111E+03
  1.3135E+03
  1.3160E+03
  1.3184E+03
  1.3208E+03
  1.3233E+03
  1.3257E+03
  1.3282E+03
  1.3306E+03
  1.3330E+03
  1.3354E+03
  1.3378E+03
SCALARS Vapor_Enthalpy float
LOOKUP_TABLE default
  2.5665E+03
  2.5667E+03
  2.5668E+03
  2.5669E+03
  2.5670E+03
  2.5671E+03
  2.5672E+03
  2.5673E+03
  2.5674E+03
  2.5675E+03
  2.5676E+03
  2.5677E+03
  2.5678E+03
  2.5679E+03
  2.5681E+03
  2.5682E+03
  2.5683E+03
  2.5684E+03
  2.5685E+03
  2.5686E+03
SCALARS Liquid_Density float
LOOKUP_TABLE default
  7.4601E+02
  7.4511E+02
  7.4421E+02
  7.4331E+02
  7.4241E+02
  7.4150E+02
  7.4059E+02
  7.3968E+02
  7.3877E+02
  7.3785E+02
  7.3693E+02
  7.3601E+02
  7.3509E+02
  7.3416E+02
  7.3324E+02
  7.3231E+02
  7.3138E+02
  7.3045E+02
  7.2953E+02
  7.2862E+02
SCALARS Vapor_Density float
LOOKUP_TABLE default
  1.1382E+02
  1.1378E+02
  1.1374E+02
  1.1370E+02
  1.1366E+02
  1.1362E+02
  1.1358E+02
  1.1354E+02
  1.1351E+02
  1.1347E+02
  1.1343E+02
  1.1339E+02
  1.1335E+02
  1.1331E+02
  1.1327E+02
  1.1323E+02
  1.1319E+02
  1.1315E+02
  1.1311E+02
  1.1307E+02
SCALARS Vapor_Generation float
LOOKUP_TABLE default
  0.0000E+00
  0.0000E+00
  0.0000E+00
  0.0000E+00
  0.0000E+00
  0.0000E+00
  0.0000E+00
  0.0000E+00
  0.0000E+00
  0.0000E+00
  0.0000E+00
  0.0000E+00
  0.0000E+00
  0.0000E+00
  0.0000E+00
  0.0000E+00
  0.0000E+00
  0.0000E+00
  0.0000E+00
  0.0000E+00
SCALARS Scalar_Cell_Flow_Area float
LOOKUP_TABLE default
  8.7878E-05
  8.7878E-05
  8.7878E-05
  8.7878E-05
  8.7878E-05
  8.7878E-05
  8.7878E-05
  8.7878E-05
  8.7878E-05
  8.7878E-05
  8.7878E-05
  8.7878E-05
  8.7878E-05
  8.7878E-05
  8.7878E-05
  8.7878E-05
  8.7878E-05
  8.7878E-05
  8.7878E-05
  8.7878E-05
SCALARS Channel_Wetted_Perimeter float
LOOKUP_TABLE default
  2.9845E-02
  2.9845E-02
  2.9845E-02
  2.9845E-02
  2.9845E-02
  2.9845E-02
  2.9845E-02
  2.9845E-02
  2.9845E-02
  2.9845E-02
  2.9845E-02
  2.9845E-02
  2.9845E-02
  2.9845E-02
  2.9845E-02
  2.9845E-02
  2.9845E-02
  2.9845E-02
  2.9845E-02
  2.9845E-02
SCALARS Equilibrium_Quality float
LOOKUP_TABLE default
 -4.2765E-01
 -4.2466E-01
 -4.2167E-01
 -4.1869E-01
 -4.1570E-01
 -4.1272E-01
 -4.0973E-01
 -4.0675E-01
 -4.0377E-01
 -4.0079E-01
 -3.9782E-01
 -3.9484E-01
 -3.9187E-01
 -3.8890E-01
 -3.8593E-01
 -3.8297E-01
 -3.8002E-01
 -3.7708E-01
 -3.7416E-01
 -3.7128E-01
SCALARS Mixture_Temperature_C float
LOOKUP_TABLE default
  2.9045E+02
  2.9090E+02
  2.9135E+02
  2.9181E+02
  2.9226E+02
  2.9271E+02
  2.9315E+02
  2.9359E+02
  2.9404E+02
  2.9448E+02
  2.9493E+02
  2.9537E+02
  2.9582E+02
  2.9626E+02
  2.9670E+02
  2.9714E+02
  2.9758E+02
  2.9801E+02
  2.9844E+02
  2.9886E+02
SCALARS Mixture_Mass_Flux_kg/s/m**2 float
LOOKUP_TABLE default
  1.7069E+03
  1.7069E+03
  1.7069E+03
  1.7069E+03
  1.7069E+03
  1.7069E+03
  1.7069E+03
  1.7069E+03
  1.7069E+03
  1.7069E+03
  1.7069E+03
  1.7069E+03
  1.7069E+03
  1.7069E+03
  1.7069E+03
  1.7069E+03
  1.7069E+03
  1.7070E+03
  1.7070E+03
  1.7071E+03
VECTORS Liquid_velocity float
     0.0000E+00     0.0000E+00     0.4575E+01
     0.0000E+00     0.0000E+00     0.4579E+01
     0.0000E+00     0.0000E+00     0.4584E+01
     0.0000E+00     0.0000E+00     0.4590E+01
     0.0000E+00     0.0000E+00     0.4596E+01
     0.0000E+00     0.0000E+00     0.4601E+01
     0.0000E+00     0.0000E+00     0.4607E+01
     0.0000E+00     0.0000E+00     0.4612E+01
     0.0000E+00     0.0000E+00     0.4618E+01
     0.0000E+00     0.0000E+00     0.4624E+01
     0.0000E+00     0.0000E+00     0.4630E+01
     0.0000E+00     0.0000E+00     0.4635E+01
     0.0000E+00     0.0000E+00     0.4641E+01
     0.0000E+00     0.0000E+00     0.4647E+01
     0.0000E+00     0.0000E+00     0.4653E+01
     0.0000E+00     0.0000E+00     0.4659E+01
     0.0000E+00     0.0000E+00     0.4665E+01
     0.0000E+00     0.0000E+00     0.4671E+01
     0.0000E+00     0.0000E+00     0.4677E+01
     0.0000E+00     0.0000E+00     0.4683E+01
VECTORS Vapor_velocity float
     0.0000E+00     0.0000E+00     0.4574E+01
     0.0000E+00     0.0000E+00     0.4579E+01
     0.0000E+00     0.0000E+00     0.4584E+01
     0.0000E+00     0.0000E+00     0.4590E+01
     0.0000E+00     0.0000E+00     0.4596E+01
     0.0000E+00     0.0000E+00     0.4601E+01
     0.0000E+00     0.0000E+00     0.4607E+01
     0.0000E+00     0.0000E+00     0.4612E+01
     0.0000E+00     0.0000E+00     0.4618E+01
     0.0000E+00     0.0000E+00     0.4624E+01
     0.0000E+00     0.0000E+00     0.4630E+01
     0.0000E+00     0.0000E+00     0.4635E+01
     0.0000E+00     0.0000E+00     0.4641E+01
     0.0000E+00     0.0000E+00     0.4647E+01
     0.0000E+00     0.0000E+00     0.4653E+01
     0.0000E+00     0.0000E+00     0.4659E+01
     0.0000E+00     0.0000E+00     0.4665E+01
     0.0000E+00     0.0000E+00     0.4671E+01
     0.0000E+00     0.0000E+00     0.4677E+01
     0.0000E+00     0.0000E+00     0.4683E+01
VECTORS Droplet_velocity float
     0.0000E+00     0.0000E+00     0.4575E+01
     0.0000E+00     0.0000E+00     0.4579E+01
     0.0000E+00     0.0000E+00     0.4584E+01
     0.0000E+00     0.0000E+00     0.4590E+01
     0.0000E+00     0.0000E+00     0.4596E+01
     0.0000E+00     0.0000E+00     0.4601E+01
     0.0000E+00     0.0000E+00     0.4607E+01
     0.0000E+00     0.0000E+00     0.4612E+01
     0.0000E+00     0.0000E+00     0.4618E+01
     0.0000E+00     0.0000E+00     0.4624E+01
     0.0000E+00     0.0000E+00     0.4630E+01
     0.0000E+00     0.0000E+00     0.4635E+01
     0.0000E+00     0.0000E+00     0.4641E+01
     0.0000E+00     0.0000E+00     0.4647E+01
     0.0000E+00     0.0000E+00     0.4653E+01
     0.0000E+00     0.0000E+00     0.4659E+01
     0.0000E+00     0.0000E+00     0.4665E+01
     0.0000E+00     0.0000E+00     0.4671E+01
     0.0000E+00     0.0000E+00     0.4677E+01
     0.0000E+00     0.0000E+00     0.4683E+01
