# vtk DataFile Version 2.0
Scalar Data
ASCII
DATASET UNSTRUCTURED_GRID
FIELD FieldData 2
Time 1 1 double
  3.140715906905117E-01
  dt 1 1 double
  1.568512910429476E-02
POINTS          80 double
 -7.00000000E-03 -7.00000000E-03  0.00000000E+00
  0.00000000E+00 -7.00000000E-03  0.00000000E+00
 -7.00000000E-03  0.00000000E+00  0.00000000E+00
  0.00000000E+00  0.00000000E+00  0.00000000E+00
 -7.00000000E-03 -7.00000000E-03  3.67500000E-01
  0.00000000E+00 -7.00000000E-03  3.67500000E-01
 -7.00000000E-03  0.00000000E+00  3.67500000E-01
  0.00000000E+00  0.00000000E+00  3.67500000E-01
 -7.00000000E-03 -7.00000000E-03  3.67500000E-01
  0.00000000E+00 -7.00000000E-03  3.67500000E-01
 -7.00000000E-03  0.00000000E+00  3.67500000E-01
  0.00000000E+00  0.00000000E+00  3.67500000E-01
 -7.00000000E-03 -7.00000000E-03  7.35000000E-01
  0.00000000E+00 -7.00000000E-03  7.35000000E-01
 -7.00000000E-03  0.00000000E+00  7.35000000E-01
  0.00000000E+00  0.00000000E+00  7.35000000E-01
 -7.00000000E-03 -7.00000000E-03  7.35000000E-01
  0.00000000E+00 -7.00000000E-03  7.35000000E-01
 -7.00000000E-03  0.00000000E+00  7.35000000E-01
  0.00000000E+00  0.00000000E+00  7.35000000E-01
 -7.00000000E-03 -7.00000000E-03  1.10250000E+00
  0.00000000E+00 -7.00000000E-03  1.10250000E+00
 -7.00000000E-03  0.00000000E+00  1.10250000E+00
  0.00000000E+00  0.00000000E+00  1.10250000E+00
 -7.00000000E-03 -7.00000000E-03  1.10250000E+00
  0.00000000E+00 -7.00000000E-03  1.10250000E+00
 -7.00000000E-03  0.00000000E+00  1.10250000E+00
  0.00000000E+00  0.00000000E+00  1.10250000E+00
 -7.00000000E-03 -7.00000000E-03  1.47000000E+00
  0.00000000E+00 -7.00000000E-03  1.47000000E+00
 -7.00000000E-03  0.00000000E+00  1.47000000E+00
  0.00000000E+00  0.00000000E+00  1.47000000E+00
 -7.00000000E-03 -7.00000000E-03  1.47000000E+00
  0.00000000E+00 -7.00000000E-03  1.47000000E+00
 -7.00000000E-03  0.00000000E+00  1.47000000E+00
  0.00000000E+00  0.00000000E+00  1.47000000E+00
 -7.00000000E-03 -7.00000000E-03  1.83750000E+00
  0.00000000E+00 -7.00000000E-03  1.83750000E+00
 -7.00000000E-03  0.00000000E+00  1.83750000E+00
  0.00000000E+00  0.00000000E+00  1.83750000E+00
 -7.00000000E-03 -7.00000000E-03  1.83750000E+00
  0.00000000E+00 -7.00000000E-03  1.83750000E+00
 -7.00000000E-03  0.00000000E+00  1.83750000E+00
  0.00000000E+00  0.00000000E+00  1.83750000E+00
 -7.00000000E-03 -7.00000000E-03  2.20500000E+00
  0.00000000E+00 -7.00000000E-03  2.20500000E+00
 -7.00000000E-03  0.00000000E+00  2.20500000E+00
  0.00000000E+00  0.00000000E+00  2.20500000E+00
 -7.00000000E-03 -7.00000000E-03  2.20500000E+00
  0.00000000E+00 -7.00000000E-03  2.20500000E+00
 -7.00000000E-03  0.00000000E+00  2.20500000E+00
  0.00000000E+00  0.00000000E+00  2.20500000E+00
 -7.00000000E-03 -7.00000000E-03  2.57250000E+00
  0.00000000E+00 -7.00000000E-03  2.57250000E+00
 -7.00000000E-03  0.00000000E+00  2.57250000E+00
  0.00000000E+00  0.00000000E+00  2.57250000E+00
 -7.00000000E-03 -7.00000000E-03  2.57250000E+00
  0.00000000E+00 -7.00000000E-03  2.57250000E+00
 -7.00000000E-03  0.00000000E+00  2.57250000E+00
  0.00000000E+00  0.00000000E+00  2.57250000E+00
 -7.00000000E-03 -7.00000000E-03  2.94000000E+00
  0.00000000E+00 -7.00000000E-03  2.94000000E+00
 -7.00000000E-03  0.00000000E+00  2.94000000E+00
  0.00000000E+00  0.00000000E+00  2.94000000E+00
 -7.00000000E-03 -7.00000000E-03  2.94000000E+00
  0.00000000E+00 -7.00000000E-03  2.94000000E+00
 -7.00000000E-03  0.00000000E+00  2.94000000E+00
  0.00000000E+00  0.00000000E+00  2.94000000E+00
 -7.00000000E-03 -7.00000000E-03  3.30750000E+00
  0.00000000E+00 -7.00000000E-03  3.30750000E+00
 -7.00000000E-03  0.00000000E+00  3.30750000E+00
  0.00000000E+00  0.00000000E+00  3.30750000E+00
 -7.00000000E-03 -7.00000000E-03  3.30750000E+00
  0.00000000E+00 -7.00000000E-03  3.30750000E+00
 -7.00000000E-03  0.00000000E+00  3.30750000E+00
  0.00000000E+00  0.00000000E+00  3.30750000E+00
 -7.00000000E-03 -7.00000000E-03  3.67500000E+00
  0.00000000E+00 -7.00000000E-03  3.67500000E+00
 -7.00000000E-03  0.00000000E+00  3.67500000E+00
  0.00000000E+00  0.00000000E+00  3.67500000E+00
CELLS        10        90
         8         0         1         2         3         4         5         6         7
         8         8         9        10        11        12        13        14        15
         8        16        17        18        19        20        21        22        23
         8        24        25        26        27        28        29        30        31
         8        32        33        34        35        36        37        38        39
         8        40        41        42        43        44        45        46        47
         8        48        49        50        51        52        53        54        55
         8        56        57        58        59        60        61        62        63
         8        64        65        66        67        68        69        70        71
         8        72        73        74        75        76        77        78        79
CELL_TYPES      10
11
11
11
11
11
11
11
11
11
11
CELL_DATA      10
SCALARS Liquid_Volume_Fraction float
LOOKUP_TABLE default
  1.0000E+00
  1.0000E+00
  1.0000E+00
  1.0000E+00
  1.0000E+00
  1.0000E+00
  1.0000E+00
  1.0000E+00
  1.0000E+00
  1.0000E+00
SCALARS Entrained_Volume_Fraction float
LOOKUP_TABLE default
  0.0000E+00
  0.0000E+00
  0.0000E+00
  0.0000E+00
  0.0000E+00
  0.0000E+00
  0.0000E+00
  0.0000E+00
  0.0000E+00
  0.0000E+00
SCALARS Vapor_Volume_Fraction float
LOOKUP_TABLE default
  0.0000E+00
  0.0000E+00
  0.0000E+00
  0.0000E+00
  0.0000E+00
  0.0000E+00
  0.0000E+00
  0.0000E+00
  0.0000E+00
  0.0000E+00
SCALARS Pressure float
LOOKUP_TABLE default
  1.5500E+02
  1.5500E+02
  1.5500E+02
  1.5500E+02
  1.5500E+02
  1.5500E+02
  1.5500E+02
  1.5500E+02
  1.5500E+02
  1.5500E+02
SCALARS Liquid_Enthalpy float
LOOKUP_TABLE default
  1.3163E+03
  1.3160E+03
  1.3149E+03
  1.3125E+03
  1.3087E+03
  1.3040E+03
  1.2992E+03
  1.2952E+03
  1.2924E+03
  1.2907E+03
SCALARS Vapor_Enthalpy float
LOOKUP_TABLE default
  2.6005E+03
  2.6005E+03
  2.6005E+03
  2.6005E+03
  2.6005E+03
  2.6005E+03
  2.6005E+03
  2.6005E+03
  2.6005E+03
  2.6005E+03
SCALARS Liquid_Density float
LOOKUP_TABLE default
  7.3489E+02
  7.3501E+02
  7.3542E+02
  7.3631E+02
  7.3775E+02
  7.3952E+02
  7.4129E+02
  7.4276E+02
  7.4380E+02
  7.4442E+02
SCALARS Vapor_Density float
LOOKUP_TABLE default
  1.0154E+02
  1.0154E+02
  1.0154E+02
  1.0154E+02
  1.0154E+02
  1.0154E+02
  1.0154E+02
  1.0154E+02
  1.0154E+02
  1.0154E+02
SCALARS Vapor_Generation float
LOOKUP_TABLE default
  0.0000E+00
  0.0000E+00
  0.0000E+00
  0.0000E+00
  0.0000E+00
  0.0000E+00
  0.0000E+00
  0.0000E+00
  0.0000E+00
  0.0000E+00
SCALARS Scalar_Cell_Flow_Area float
LOOKUP_TABLE default
  4.9362E-05
  4.9362E-05
  4.9362E-05
  4.9362E-05
  4.9362E-05
  4.9362E-05
  4.9362E-05
  4.9362E-05
  4.9362E-05
  4.9362E-05
SCALARS Channel_Wetted_Perimeter float
LOOKUP_TABLE default
  1.4922E-02
  1.4922E-02
  1.4922E-02
  1.4922E-02
  1.4922E-02
  1.4922E-02
  1.4922E-02
  1.4922E-02
  1.4922E-02
  1.4922E-02
SCALARS Equilibrium_Quality float
LOOKUP_TABLE default
         NaN
         NaN
         NaN
         NaN
         NaN
         NaN
         NaN
         NaN
         NaN
         NaN
SCALARS Mixture_Temperature_C float
LOOKUP_TABLE default
         NaN
         NaN
         NaN
         NaN
         NaN
         NaN
         NaN
         NaN
         NaN
         NaN
SCALARS Mixture_Mass_Flux_kg/s/m**2 float
LOOKUP_TABLE default
         NaN
         NaN
         NaN
         NaN
         NaN
         NaN
         NaN
         NaN
         NaN
         NaN
VECTORS Liquid_velocity float
     0.0000E+00     0.0000E+00     0.6892E+01
     0.0000E+00     0.0000E+00     0.6891E+01
     0.0000E+00     0.0000E+00     0.6889E+01
     0.0000E+00     0.0000E+00     0.6886E+01
     0.0000E+00     0.0000E+00     0.6884E+01
     0.0000E+00     0.0000E+00     0.6883E+01
     0.0000E+00     0.0000E+00     0.6884E+01
     0.0000E+00     0.0000E+00     0.6886E+01
     0.0000E+00     0.0000E+00     0.6888E+01
     0.0000E+00     0.0000E+00     0.6890E+01
VECTORS Vapor_velocity float
     0.0000E+00     0.0000E+00            NaN
     0.0000E+00     0.0000E+00            NaN
     0.0000E+00     0.0000E+00            NaN
     0.0000E+00     0.0000E+00            NaN
     0.0000E+00     0.0000E+00            NaN
     0.0000E+00     0.0000E+00            NaN
     0.0000E+00     0.0000E+00            NaN
     0.0000E+00     0.0000E+00            NaN
     0.0000E+00     0.0000E+00            NaN
     0.0000E+00     0.0000E+00            NaN
VECTORS Droplet_velocity float
     0.0000E+00     0.0000E+00            NaN
     0.0000E+00     0.0000E+00            NaN
     0.0000E+00     0.0000E+00            NaN
     0.0000E+00     0.0000E+00            NaN
     0.0000E+00     0.0000E+00            NaN
     0.0000E+00     0.0000E+00            NaN
     0.0000E+00     0.0000E+00            NaN
     0.0000E+00     0.0000E+00            NaN
     0.0000E+00     0.0000E+00            NaN
     0.0000E+00     0.0000E+00            NaN
